
The number of threads in each node for OpenMP parallelization is 1.


*******************************************************
*******************************************************
 Welcome to OpenMX   Ver. 3.9.9                           
 Copyright (C), 2002-2019, T. Ozaki                    
 OpenMX comes with ABSOLUTELY NO WARRANTY.             
 This is free software, and you are welcome to         
 redistribute it under the constitution of the GNU-GPL.
*******************************************************
*******************************************************

Automatic determination of Kerker_factor:   3.992945286074


<Input_std>  Your input file was normally read.
<Input_std>  The system includes 2 species and 125 atoms.

*******************************************************
                     PAO and VPS                       
*******************************************************

<SetPara_DFT>  PAOs of species C were normally found.
<SetPara_DFT>  PAOs of species O were normally found.
<SetPara_DFT>  VPSs of species C were normally found.
               C_PBE19.vps is j-dependent.
               In case of scf.SpinOrbit.Coupling=off,
               j-dependent pseudo potentials are averaged by j-degeneracy,
               which corresponds to a scalar relativistic treatment.
<SetPara_DFT>  VPSs of species O were normally found.
               O_PBE19.vps is j-dependent.
               In case of scf.SpinOrbit.Coupling=off,
               j-dependent pseudo potentials are averaged by j-degeneracy,
               which corresponds to a scalar relativistic treatment.

*******************************************************
     Fourier transform of PAO and projectors of VNL    
*******************************************************

<FT_PAO>          Fourier transform of pseudo atomic orbitals
<FT_NLP>          Fourier transform of non-local projectors
<FT_ProExpn_VNA>  Fourier transform of VNA separable projectors
<FT_VNA>          Fourier transform of VNA potentials
<FT_ProductPAO>   Fourier transform of product of PAOs

*******************************************************
  Allocation of atoms to processors at MD_iter=    1     
*******************************************************

 proc =   0  # of atoms=   1  estimated weight=         1.00000
 proc =   1  # of atoms=   2  estimated weight=         2.00000
 proc =   2  # of atoms=   2  estimated weight=         2.00000
 proc =   3  # of atoms=   2  estimated weight=         2.00000
 proc =   4  # of atoms=   2  estimated weight=         2.00000
 proc =   5  # of atoms=   2  estimated weight=         2.00000
 proc =   6  # of atoms=   2  estimated weight=         2.00000
 proc =   7  # of atoms=   2  estimated weight=         2.00000
 proc =   8  # of atoms=   2  estimated weight=         2.00000
 proc =   9  # of atoms=   2  estimated weight=         2.00000
 proc =  10  # of atoms=   2  estimated weight=         2.00000
 proc =  11  # of atoms=   2  estimated weight=         2.00000
 proc =  12  # of atoms=   2  estimated weight=         2.00000
 proc =  13  # of atoms=   2  estimated weight=         2.00000
 proc =  14  # of atoms=   2  estimated weight=         2.00000
 proc =  15  # of atoms=   2  estimated weight=         2.00000
 proc =  16  # of atoms=   1  estimated weight=         1.00000
 proc =  17  # of atoms=   2  estimated weight=         2.00000
 proc =  18  # of atoms=   2  estimated weight=         2.00000
 proc =  19  # of atoms=   2  estimated weight=         2.00000
 proc =  20  # of atoms=   2  estimated weight=         2.00000
 proc =  21  # of atoms=   2  estimated weight=         2.00000
 proc =  22  # of atoms=   2  estimated weight=         2.00000
 proc =  23  # of atoms=   2  estimated weight=         2.00000
 proc =  24  # of atoms=   2  estimated weight=         2.00000
 proc =  25  # of atoms=   2  estimated weight=         2.00000
 proc =  26  # of atoms=   2  estimated weight=         2.00000
 proc =  27  # of atoms=   2  estimated weight=         2.00000
 proc =  28  # of atoms=   2  estimated weight=         2.00000
 proc =  29  # of atoms=   2  estimated weight=         2.00000
 proc =  30  # of atoms=   2  estimated weight=         2.00000
 proc =  31  # of atoms=   2  estimated weight=         2.00000
 proc =  32  # of atoms=   1  estimated weight=         1.00000
 proc =  33  # of atoms=   2  estimated weight=         2.00000
 proc =  34  # of atoms=   2  estimated weight=         2.00000
 proc =  35  # of atoms=   2  estimated weight=         2.00000
 proc =  36  # of atoms=   2  estimated weight=         2.00000
 proc =  37  # of atoms=   2  estimated weight=         2.00000
 proc =  38  # of atoms=   2  estimated weight=         2.00000
 proc =  39  # of atoms=   2  estimated weight=         2.00000
 proc =  40  # of atoms=   2  estimated weight=         2.00000
 proc =  41  # of atoms=   2  estimated weight=         2.00000
 proc =  42  # of atoms=   2  estimated weight=         2.00000
 proc =  43  # of atoms=   2  estimated weight=         2.00000
 proc =  44  # of atoms=   2  estimated weight=         2.00000
 proc =  45  # of atoms=   2  estimated weight=         2.00000
 proc =  46  # of atoms=   2  estimated weight=         2.00000
 proc =  47  # of atoms=   2  estimated weight=         2.00000
 proc =  48  # of atoms=   2  estimated weight=         2.00000
 proc =  49  # of atoms=   2  estimated weight=         2.00000
 proc =  50  # of atoms=   2  estimated weight=         2.00000
 proc =  51  # of atoms=   2  estimated weight=         2.00000
 proc =  52  # of atoms=   2  estimated weight=         2.00000
 proc =  53  # of atoms=   2  estimated weight=         2.00000
 proc =  54  # of atoms=   2  estimated weight=         2.00000
 proc =  55  # of atoms=   2  estimated weight=         2.00000
 proc =  56  # of atoms=   2  estimated weight=         2.00000
 proc =  57  # of atoms=   2  estimated weight=         2.00000
 proc =  58  # of atoms=   2  estimated weight=         2.00000
 proc =  59  # of atoms=   2  estimated weight=         2.00000
 proc =  60  # of atoms=   2  estimated weight=         2.00000
 proc =  61  # of atoms=   2  estimated weight=         2.00000
 proc =  62  # of atoms=   2  estimated weight=         2.00000
 proc =  63  # of atoms=   2  estimated weight=         2.00000




*******************************************************
        Analysis of neighbors and setting of grids        
*******************************************************

TFNAN=    5364   Average FNAN=  42.91200
TSNAN=       0   Average SNAN=   0.00000
<truncation> CpyCell= 1 ct_AN=   1 FNAN SNAN  45   0
<truncation> CpyCell= 1 ct_AN=   2 FNAN SNAN  45   0
<truncation> CpyCell= 1 ct_AN=   3 FNAN SNAN  45   0
<truncation> CpyCell= 1 ct_AN=   4 FNAN SNAN  45   0
<truncation> CpyCell= 1 ct_AN=   5 FNAN SNAN  45   0
<truncation> CpyCell= 1 ct_AN=   6 FNAN SNAN  45   0
<truncation> CpyCell= 1 ct_AN=   7 FNAN SNAN  45   0
<truncation> CpyCell= 1 ct_AN=   8 FNAN SNAN  45   0
<truncation> CpyCell= 1 ct_AN=   9 FNAN SNAN  44   0
<truncation> CpyCell= 1 ct_AN=  10 FNAN SNAN  42   0
<truncation> CpyCell= 1 ct_AN=  11 FNAN SNAN  42   0
<truncation> CpyCell= 1 ct_AN=  12 FNAN SNAN  42   0
<truncation> CpyCell= 1 ct_AN=  13 FNAN SNAN  44   0
<truncation> CpyCell= 1 ct_AN=  14 FNAN SNAN  45   0
<truncation> CpyCell= 1 ct_AN=  15 FNAN SNAN  45   0
<truncation> CpyCell= 1 ct_AN=  16 FNAN SNAN  45   0
<truncation> CpyCell= 1 ct_AN=  17 FNAN SNAN  44   0
<truncation> CpyCell= 1 ct_AN=  18 FNAN SNAN  41   0
<truncation> CpyCell= 1 ct_AN=  19 FNAN SNAN  41   0
<truncation> CpyCell= 1 ct_AN=  20 FNAN SNAN  41   0
     ..........
     ......

TFNAN=    5364   Average FNAN=  42.91200
TSNAN=       0   Average SNAN=   0.00000
<truncation> CpyCell= 2 ct_AN=   1 FNAN SNAN  45   0
<truncation> CpyCell= 2 ct_AN=   2 FNAN SNAN  45   0
<truncation> CpyCell= 2 ct_AN=   3 FNAN SNAN  45   0
<truncation> CpyCell= 2 ct_AN=   4 FNAN SNAN  45   0
<truncation> CpyCell= 2 ct_AN=   5 FNAN SNAN  45   0
<truncation> CpyCell= 2 ct_AN=   6 FNAN SNAN  45   0
<truncation> CpyCell= 2 ct_AN=   7 FNAN SNAN  45   0
<truncation> CpyCell= 2 ct_AN=   8 FNAN SNAN  45   0
<truncation> CpyCell= 2 ct_AN=   9 FNAN SNAN  44   0
<truncation> CpyCell= 2 ct_AN=  10 FNAN SNAN  42   0
<truncation> CpyCell= 2 ct_AN=  11 FNAN SNAN  42   0
<truncation> CpyCell= 2 ct_AN=  12 FNAN SNAN  42   0
<truncation> CpyCell= 2 ct_AN=  13 FNAN SNAN  44   0
<truncation> CpyCell= 2 ct_AN=  14 FNAN SNAN  45   0
<truncation> CpyCell= 2 ct_AN=  15 FNAN SNAN  45   0
<truncation> CpyCell= 2 ct_AN=  16 FNAN SNAN  45   0
<truncation> CpyCell= 2 ct_AN=  17 FNAN SNAN  44   0
<truncation> CpyCell= 2 ct_AN=  18 FNAN SNAN  41   0
<truncation> CpyCell= 2 ct_AN=  19 FNAN SNAN  41   0
<truncation> CpyCell= 2 ct_AN=  20 FNAN SNAN  41   0
     ..........
     ......

TFNAN=    5364   Average FNAN=  42.91200
TSNAN=       0   Average SNAN=   0.00000
<truncation> CpyCell= 2 ct_AN=   1 FNAN SNAN  45   0
<truncation> CpyCell= 2 ct_AN=   2 FNAN SNAN  45   0
<truncation> CpyCell= 2 ct_AN=   3 FNAN SNAN  45   0
<truncation> CpyCell= 2 ct_AN=   4 FNAN SNAN  45   0
<truncation> CpyCell= 2 ct_AN=   5 FNAN SNAN  45   0
<truncation> CpyCell= 2 ct_AN=   6 FNAN SNAN  45   0
<truncation> CpyCell= 2 ct_AN=   7 FNAN SNAN  45   0
<truncation> CpyCell= 2 ct_AN=   8 FNAN SNAN  45   0
<truncation> CpyCell= 2 ct_AN=   9 FNAN SNAN  44   0
<truncation> CpyCell= 2 ct_AN=  10 FNAN SNAN  42   0
<truncation> CpyCell= 2 ct_AN=  11 FNAN SNAN  42   0
<truncation> CpyCell= 2 ct_AN=  12 FNAN SNAN  42   0
<truncation> CpyCell= 2 ct_AN=  13 FNAN SNAN  44   0
<truncation> CpyCell= 2 ct_AN=  14 FNAN SNAN  45   0
<truncation> CpyCell= 2 ct_AN=  15 FNAN SNAN  45   0
<truncation> CpyCell= 2 ct_AN=  16 FNAN SNAN  45   0
<truncation> CpyCell= 2 ct_AN=  17 FNAN SNAN  44   0
<truncation> CpyCell= 2 ct_AN=  18 FNAN SNAN  41   0
<truncation> CpyCell= 2 ct_AN=  19 FNAN SNAN  41   0
<truncation> CpyCell= 2 ct_AN=  20 FNAN SNAN  41   0
     ..........
     ......

<Check_System> The system is slab.
lattice vectors (bohr)
A  = 37.299978480367,  0.000000000000,  0.000000000000
B  = -18.649989240184, 32.302728872609,  0.000000000000
C  =  0.000000000000,  0.000000000000, 39.684245760157
reciprocal lattice vectors (bohr^-1)
RA =  0.168450105420,  0.097254713866, -0.000000000000
RB =  0.000000000000,  0.194509427732,  0.000000000000
RC =  0.000000000000, -0.000000000000,  0.158329462658
Grid_Origin  0.051805527179  0.089729834171  0.280667892264
Cell_Volume =  47815.194201431834 (Bohr^3)
GridVol     =      0.006832303698 (Bohr^3)
Grid_Origin  0.051805527179  0.089729834171  0.280667892264
Cell_Volume =  47815.194201431834 (Bohr^3)
GridVol     =      0.006832303698 (Bohr^3)
<UCell_Box> Info. of cutoff energy and num. of grids
lattice vectors (bohr)
A  = 37.299978480367,  0.000000000000,  0.000000000000
B  = -18.649989240184, 32.302728872609,  0.000000000000
C  =  0.000000000000,  0.000000000000, 39.684245760157
reciprocal lattice vectors (bohr^-1)
RA =  0.168450105420,  0.097254713866, -0.000000000000
RB =  0.000000000000,  0.194509427732,  0.000000000000
RC =  0.000000000000, -0.000000000000,  0.158329462658
Required cutoff energy (Ryd) for 3D-grids = 300.0000
    Used cutoff energy (Ryd) for 3D-grids = 306.4547, 306.4547, 292.3957
Num. of grids of a-, b-, and c-axes = 180, 180, 216
Grid_Origin  0.051805527179  0.089729834171  0.280667892264
Cell_Volume =  47815.194201431834 (Bohr^3)
GridVol     =      0.006832303698 (Bohr^3)
Cell vectors (bohr) of the grid cell (gtv)
  gtv_a =  0.207222102669,  0.000000000000,  0.000000000000
  gtv_b = -0.103611051334,  0.179459604848,  0.000000000000
  gtv_c =  0.000000000000,  0.000000000000,  0.183723360001
  |gtv_a| =  0.207222102669
  |gtv_b| =  0.207222102419
  |gtv_c| =  0.183723360001
Num. of grids overlapping with atom    1 = 132391
Num. of grids overlapping with atom    2 = 132405
Num. of grids overlapping with atom    3 = 132393
Num. of grids overlapping with atom    4 = 132406
Num. of grids overlapping with atom    5 = 132383
Num. of grids overlapping with atom    6 = 132404
Num. of grids overlapping with atom    7 = 132382
Num. of grids overlapping with atom    8 = 132405
Num. of grids overlapping with atom    9 = 132399
Num. of grids overlapping with atom   10 = 132384
Num. of grids overlapping with atom   11 = 132398
Num. of grids overlapping with atom   12 = 132389
Num. of grids overlapping with atom   13 = 132373
Num. of grids overlapping with atom   14 = 132380
Num. of grids overlapping with atom   15 = 132381
Num. of grids overlapping with atom   16 = 132379
Num. of grids overlapping with atom   17 = 132394
Num. of grids overlapping with atom   18 = 132410
Num. of grids overlapping with atom   19 = 132419
Num. of grids overlapping with atom   20 = 132463
     ..........
     ......


*******************************************************
             SCF calculation at MD = 1                
*******************************************************

<MD= 1>  Calculation of the overlap matrix
<MD= 1>  Calculation of the nonlocal matrix
<MD= 1>  Calculation of the VNA projector matrix

******************* MD= 1  SCF= 1 *******************
<Band>  Solving the eigenvalue problem...
 KGrids1:  -0.43750  -0.31250  -0.18750  -0.06250   0.06250   0.18750   0.31250   0.43750 
 KGrids2:  -0.43750  -0.31250  -0.18750  -0.06250   0.06250   0.18750   0.31250   0.43750 
 KGrids3:   0.00000 
<Band_DFT>  Eigen, time=20.581787
<Band_DFT>  DM, time=0.000021
    1    C  MulP   1.9957  1.9957 sum   3.9914
    2    C  MulP   1.9930  1.9930 sum   3.9860
    3    C  MulP   1.9932  1.9932 sum   3.9864
    4    C  MulP   1.9955  1.9955 sum   3.9910
    5    C  MulP   1.9896  1.9896 sum   3.9792
    6    C  MulP   1.9954  1.9954 sum   3.9908
    7    C  MulP   1.9956  1.9956 sum   3.9913
    8    C  MulP   1.9894  1.9894 sum   3.9788
    9    C  MulP   1.9943  1.9943 sum   3.9886
   10    C  MulP   1.9884  1.9884 sum   3.9768
   11    C  MulP   1.9982  1.9982 sum   3.9965
   12    C  MulP   1.9884  1.9884 sum   3.9768
   13    C  MulP   1.9944  1.9944 sum   3.9888
   14    C  MulP   1.9956  1.9956 sum   3.9912
   15    C  MulP   1.9897  1.9897 sum   3.9794
   16    C  MulP   1.9956  1.9956 sum   3.9913
   17    C  MulP   1.9880  1.9880 sum   3.9760
   18    C  MulP   1.9892  1.9892 sum   3.9784
   19    C  MulP   1.9877  1.9877 sum   3.9754
   20    C  MulP   1.9876  1.9876 sum   3.9752
     ..........
     ......

 Sum of MulP: up   =   252.00000 down          =   252.00000
              total=   504.00000 ideal(neutral)=   504.00000
<DFT>  Total Spin Moment (muB) =  0.000000000000
<DFT>  Mixing_weight= 0.050000000000
<DFT>  Uele   = -205.655170099506  dUele     =   1.000000000000
<DFT>  NormRD =    1.000000000000  Criterion =   0.000000010000

******************* MD= 1  SCF= 2 *******************
<Poisson>  Poisson's equation using FFT...
<Set_Hamiltonian>  Hamiltonian matrix for VNA+dVH+Vxc...
<Band>  Solving the eigenvalue problem...
 KGrids1:  -0.43750  -0.31250  -0.18750  -0.06250   0.06250   0.18750   0.31250   0.43750 
 KGrids2:  -0.43750  -0.31250  -0.18750  -0.06250   0.06250   0.18750   0.31250   0.43750 
 KGrids3:   0.00000 
<Band_DFT>  Eigen, time=12.022589
<Band_DFT>  DM, time=0.000001
    1    C  MulP   1.9957  1.9957 sum   3.9914
    2    C  MulP   1.9930  1.9930 sum   3.9860
    3    C  MulP   1.9932  1.9932 sum   3.9864
    4    C  MulP   1.9955  1.9955 sum   3.9910
    5    C  MulP   1.9896  1.9896 sum   3.9792
    6    C  MulP   1.9954  1.9954 sum   3.9908
    7    C  MulP   1.9956  1.9956 sum   3.9913
    8    C  MulP   1.9894  1.9894 sum   3.9788
    9    C  MulP   1.9943  1.9943 sum   3.9886
   10    C  MulP   1.9884  1.9884 sum   3.9768
   11    C  MulP   1.9982  1.9982 sum   3.9965
   12    C  MulP   1.9884  1.9884 sum   3.9768
   13    C  MulP   1.9944  1.9944 sum   3.9888
   14    C  MulP   1.9956  1.9956 sum   3.9912
   15    C  MulP   1.9897  1.9897 sum   3.9794
   16    C  MulP   1.9956  1.9956 sum   3.9913
   17    C  MulP   1.9880  1.9880 sum   3.9760
   18    C  MulP   1.9892  1.9892 sum   3.9784
   19    C  MulP   1.9877  1.9877 sum   3.9754
   20    C  MulP   1.9876  1.9876 sum   3.9752
     ..........
     ......

 Sum of MulP: up   =   252.00000 down          =   252.00000
              total=   504.00000 ideal(neutral)=   504.00000
<DFT>  Total Spin Moment (muB) =  0.000000000000
<DFT>  Mixing_weight= 0.010000000000
<DFT>  Uele   = -205.655170099506  dUele     =   0.000000000000
<DFT>  NormRD =   10.140026570454  Criterion =   0.000000010000

******************* MD= 1  SCF= 3 *******************
<Poisson>  Poisson's equation using FFT...
<Set_Hamiltonian>  Hamiltonian matrix for VNA+dVH+Vxc...
<Band>  Solving the eigenvalue problem...
 KGrids1:  -0.43750  -0.31250  -0.18750  -0.06250   0.06250   0.18750   0.31250   0.43750 
 KGrids2:  -0.43750  -0.31250  -0.18750  -0.06250   0.06250   0.18750   0.31250   0.43750 
 KGrids3:   0.00000 
<Band_DFT>  Eigen, time=12.114393
<Band_DFT>  DM, time=0.000000
    1    C  MulP   1.9958  1.9958 sum   3.9917
    2    C  MulP   1.9933  1.9933 sum   3.9865
    3    C  MulP   1.9935  1.9935 sum   3.9870
    4    C  MulP   1.9957  1.9957 sum   3.9913
    5    C  MulP   1.9900  1.9900 sum   3.9800
    6    C  MulP   1.9955  1.9955 sum   3.9911
    7    C  MulP   1.9958  1.9958 sum   3.9915
    8    C  MulP   1.9898  1.9898 sum   3.9796
    9    C  MulP   1.9945  1.9945 sum   3.9891
   10    C  MulP   1.9889  1.9889 sum   3.9777
   11    C  MulP   1.9983  1.9983 sum   3.9966
   12    C  MulP   1.9889  1.9889 sum   3.9777
   13    C  MulP   1.9946  1.9946 sum   3.9892
   14    C  MulP   1.9957  1.9957 sum   3.9915
   15    C  MulP   1.9901  1.9901 sum   3.9802
   16    C  MulP   1.9958  1.9958 sum   3.9915
   17    C  MulP   1.9884  1.9884 sum   3.9768
   18    C  MulP   1.9896  1.9896 sum   3.9792
   19    C  MulP   1.9876  1.9876 sum   3.9753
   20    C  MulP   1.9876  1.9876 sum   3.9751
     ..........
     ......

 Sum of MulP: up   =   252.00000 down          =   252.00000
              total=   504.00000 ideal(neutral)=   504.00000
<DFT>  Total Spin Moment (muB) =  0.000000000000
<DFT>  Mixing_weight= 0.300000000000
<DFT>  Uele   = -206.057860813467  dUele     =   0.402690713961
<DFT>  NormRD =   10.013691395094  Criterion =   0.000000010000

******************* MD= 1  SCF= 4 *******************
<Poisson>  Poisson's equation using FFT...
<Set_Hamiltonian>  Hamiltonian matrix for VNA+dVH+Vxc...
<Band>  Solving the eigenvalue problem...
 KGrids1:  -0.43750  -0.31250  -0.18750  -0.06250   0.06250   0.18750   0.31250   0.43750 
 KGrids2:  -0.43750  -0.31250  -0.18750  -0.06250   0.06250   0.18750   0.31250   0.43750 
 KGrids3:   0.00000 
<Band_DFT>  Eigen, time=12.032448
<Band_DFT>  DM, time=0.000000
    1    C  MulP   2.0014  2.0014 sum   4.0028
    2    C  MulP   2.0032  2.0032 sum   4.0064
    3    C  MulP   2.0034  2.0034 sum   4.0067
    4    C  MulP   2.0012  2.0012 sum   4.0024
    5    C  MulP   2.0036  2.0036 sum   4.0072
    6    C  MulP   2.0003  2.0003 sum   4.0006
    7    C  MulP   2.0005  2.0005 sum   4.0010
    8    C  MulP   2.0034  2.0034 sum   4.0069
    9    C  MulP   2.0018  2.0018 sum   4.0035
   10    C  MulP   2.0049  2.0049 sum   4.0098
   11    C  MulP   2.0003  2.0003 sum   4.0007
   12    C  MulP   2.0048  2.0048 sum   4.0096
   13    C  MulP   2.0017  2.0017 sum   4.0034
   14    C  MulP   2.0005  2.0005 sum   4.0010
   15    C  MulP   2.0031  2.0031 sum   4.0061
   16    C  MulP   2.0005  2.0005 sum   4.0010
   17    C  MulP   2.0027  2.0027 sum   4.0054
   18    C  MulP   1.9997  1.9997 sum   3.9994
   19    C  MulP   1.9864  1.9864 sum   3.9729
   20    C  MulP   1.9859  1.9859 sum   3.9718
     ..........
     ......

 Sum of MulP: up   =   252.00000 down          =   252.00000
              total=   504.00000 ideal(neutral)=   504.00000
<DFT>  Total Spin Moment (muB) =  0.000000000000
<DFT>  Mixing_weight= 0.300000000000
<DFT>  Uele   = -218.038985537844  dUele     =  11.981124724377
<DFT>  NormRD =    6.478025185430  Criterion =   0.000000010000

******************* MD= 1  SCF= 5 *******************
<Poisson>  Poisson's equation using FFT...
<Set_Hamiltonian>  Hamiltonian matrix for VNA+dVH+Vxc...
<Band>  Solving the eigenvalue problem...
 KGrids1:  -0.43750  -0.31250  -0.18750  -0.06250   0.06250   0.18750   0.31250   0.43750 
 KGrids2:  -0.43750  -0.31250  -0.18750  -0.06250   0.06250   0.18750   0.31250   0.43750 
 KGrids3:   0.00000 
<Band_DFT>  Eigen, time=12.045983
<Band_DFT>  DM, time=0.000000
    1    C  MulP   1.9964  1.9964 sum   3.9928
    2    C  MulP   1.9935  1.9935 sum   3.9869
    3    C  MulP   1.9937  1.9937 sum   3.9874
    4    C  MulP   1.9962  1.9962 sum   3.9924
    5    C  MulP   1.9931  1.9931 sum   3.9863
    6    C  MulP   1.9966  1.9966 sum   3.9932
    7    C  MulP   1.9968  1.9968 sum   3.9936
    8    C  MulP   1.9929  1.9929 sum   3.9857
    9    C  MulP   1.9963  1.9963 sum   3.9925
   10    C  MulP   1.9918  1.9918 sum   3.9836
   11    C  MulP   1.9931  1.9931 sum   3.9862
   12    C  MulP   1.9920  1.9920 sum   3.9840
   13    C  MulP   1.9966  1.9966 sum   3.9933
   14    C  MulP   1.9968  1.9968 sum   3.9937
   15    C  MulP   1.9930  1.9930 sum   3.9861
   16    C  MulP   1.9968  1.9968 sum   3.9936
   17    C  MulP   1.9918  1.9918 sum   3.9836
   18    C  MulP   1.9964  1.9964 sum   3.9929
   19    C  MulP   1.9807  1.9807 sum   3.9615
   20    C  MulP   1.9821  1.9821 sum   3.9642
     ..........
     ......

 Sum of MulP: up   =   252.00000 down          =   252.00000
              total=   504.00000 ideal(neutral)=   504.00000
<DFT>  Total Spin Moment (muB) =  0.000000000000
<DFT>  Mixing_weight= 0.300000000000
<DFT>  Uele   = -225.440881522836  dUele     =   7.401895984992
<DFT>  NormRD =    4.376846977371  Criterion =   0.000000010000

******************* MD= 1  SCF= 6 *******************
<Poisson>  Poisson's equation using FFT...
<Set_Hamiltonian>  Hamiltonian matrix for VNA+dVH+Vxc...
<Band>  Solving the eigenvalue problem...
 KGrids1:  -0.43750  -0.31250  -0.18750  -0.06250   0.06250   0.18750   0.31250   0.43750 
 KGrids2:  -0.43750  -0.31250  -0.18750  -0.06250   0.06250   0.18750   0.31250   0.43750 
 KGrids3:   0.00000 
<Band_DFT>  Eigen, time=12.038687
<Band_DFT>  DM, time=0.000000
    1    C  MulP   2.0013  2.0013 sum   4.0025
    2    C  MulP   2.0027  2.0027 sum   4.0055
    3    C  MulP   2.0028  2.0028 sum   4.0055
    4    C  MulP   2.0012  2.0012 sum   4.0024
    5    C  MulP   2.0033  2.0033 sum   4.0065
    6    C  MulP   2.0005  2.0005 sum   4.0009
    7    C  MulP   2.0007  2.0007 sum   4.0014
    8    C  MulP   2.0033  2.0033 sum   4.0067
    9    C  MulP   2.0022  2.0022 sum   4.0043
   10    C  MulP   2.0046  2.0046 sum   4.0093
   11    C  MulP   1.9988  1.9988 sum   3.9977
   12    C  MulP   2.0038  2.0038 sum   4.0077
   13    C  MulP   2.0016  2.0016 sum   4.0032
   14    C  MulP   2.0007  2.0007 sum   4.0013
   15    C  MulP   2.0029  2.0029 sum   4.0058
   16    C  MulP   2.0007  2.0007 sum   4.0014
   17    C  MulP   2.0031  2.0031 sum   4.0062
   18    C  MulP   2.0047  2.0047 sum   4.0095
   19    C  MulP   1.9855  1.9855 sum   3.9710
   20    C  MulP   1.9811  1.9811 sum   3.9621
     ..........
     ......

 Sum of MulP: up   =   252.00000 down          =   252.00000
              total=   504.00000 ideal(neutral)=   504.00000
<DFT>  Total Spin Moment (muB) =  0.000000000000
<DFT>  Mixing_weight= 0.300000000000
<DFT>  Uele   = -230.626298575497  dUele     =   5.185417052662
<DFT>  NormRD =    3.056602179876  Criterion =   0.000000010000

******************* MD= 1  SCF= 7 *******************
<Poisson>  Poisson's equation using FFT...
<Set_Hamiltonian>  Hamiltonian matrix for VNA+dVH+Vxc...
<Band>  Solving the eigenvalue problem...
 KGrids1:  -0.43750  -0.31250  -0.18750  -0.06250   0.06250   0.18750   0.31250   0.43750 
 KGrids2:  -0.43750  -0.31250  -0.18750  -0.06250   0.06250   0.18750   0.31250   0.43750 
 KGrids3:   0.00000 
<Band_DFT>  Eigen, time=12.028690
<Band_DFT>  DM, time=0.000000
    1    C  MulP   1.9971  1.9971 sum   3.9941
    2    C  MulP   1.9936  1.9936 sum   3.9873
    3    C  MulP   1.9944  1.9944 sum   3.9888
    4    C  MulP   1.9966  1.9966 sum   3.9932
    5    C  MulP   1.9936  1.9936 sum   3.9873
    6    C  MulP   1.9971  1.9971 sum   3.9941
    7    C  MulP   1.9972  1.9972 sum   3.9945
    8    C  MulP   1.9930  1.9930 sum   3.9861
    9    C  MulP   1.9962  1.9962 sum   3.9924
   10    C  MulP   1.9917  1.9917 sum   3.9835
   11    C  MulP   1.9936  1.9936 sum   3.9873
   12    C  MulP   1.9934  1.9934 sum   3.9869
   13    C  MulP   1.9977  1.9977 sum   3.9954
   14    C  MulP   1.9973  1.9973 sum   3.9946
   15    C  MulP   1.9934  1.9934 sum   3.9867
   16    C  MulP   1.9972  1.9972 sum   3.9944
   17    C  MulP   1.9916  1.9916 sum   3.9833
   18    C  MulP   1.9881  1.9881 sum   3.9761
   19    C  MulP   1.9762  1.9762 sum   3.9523
   20    C  MulP   1.9878  1.9878 sum   3.9756
     ..........
     ......

 Sum of MulP: up   =   252.00000 down          =   252.00000
              total=   504.00000 ideal(neutral)=   504.00000
<DFT>  Total Spin Moment (muB) =  0.000000000000
<DFT>  Mixing_weight= 0.300000000000
<DFT>  Uele   = -233.721561027127  dUele     =   3.095262451630
<DFT>  NormRD =    2.540345008252  Criterion =   0.000000010000

******************* MD= 1  SCF= 8 *******************
<Poisson>  Poisson's equation using FFT...
<Set_Hamiltonian>  Hamiltonian matrix for VNA+dVH+Vxc...
<Band>  Solving the eigenvalue problem...
 KGrids1:  -0.43750  -0.31250  -0.18750  -0.06250   0.06250   0.18750   0.31250   0.43750 
 KGrids2:  -0.43750  -0.31250  -0.18750  -0.06250   0.06250   0.18750   0.31250   0.43750 
 KGrids3:   0.00000 
<Band_DFT>  Eigen, time=12.037285
<Band_DFT>  DM, time=0.000001
    1    C  MulP   2.0010  2.0010 sum   4.0020
    2    C  MulP   2.0037  2.0037 sum   4.0074
    3    C  MulP   2.0030  2.0030 sum   4.0059
    4    C  MulP   2.0016  2.0016 sum   4.0032
    5    C  MulP   2.0028  2.0028 sum   4.0056
    6    C  MulP   2.0005  2.0005 sum   4.0010
    7    C  MulP   2.0009  2.0009 sum   4.0017
    8    C  MulP   2.0036  2.0036 sum   4.0072
    9    C  MulP   2.0030  2.0030 sum   4.0060
   10    C  MulP   2.0058  2.0058 sum   4.0116
   11    C  MulP   2.0005  2.0005 sum   4.0010
   12    C  MulP   2.0021  2.0021 sum   4.0043
   13    C  MulP   2.0013  2.0013 sum   4.0027
   14    C  MulP   2.0007  2.0007 sum   4.0015
   15    C  MulP   2.0029  2.0029 sum   4.0058
   16    C  MulP   2.0009  2.0009 sum   4.0017
   17    C  MulP   2.0042  2.0042 sum   4.0083
   18    C  MulP   2.0174  2.0174 sum   4.0348
   19    C  MulP   1.9935  1.9935 sum   3.9870
   20    C  MulP   1.9724  1.9724 sum   3.9449
     ..........
     ......

 Sum of MulP: up   =   252.00000 down          =   252.00000
              total=   504.00000 ideal(neutral)=   504.00000
<DFT>  Total Spin Moment (muB) =  0.000000000000
<DFT>  Mixing_weight= 0.144974490962
<DFT>  Uele   = -236.183869195222  dUele     =   2.462308168095
<DFT>  NormRD =    2.626929935582  Criterion =   0.000000010000

******************* MD= 1  SCF= 9 *******************
<Poisson>  Poisson's equation using FFT...
<Set_Hamiltonian>  Hamiltonian matrix for VNA+dVH+Vxc...
<Band>  Solving the eigenvalue problem...
 KGrids1:  -0.43750  -0.31250  -0.18750  -0.06250   0.06250   0.18750   0.31250   0.43750 
 KGrids2:  -0.43750  -0.31250  -0.18750  -0.06250   0.06250   0.18750   0.31250   0.43750 
 KGrids3:   0.00000 
<Band_DFT>  Eigen, time=12.021612
<Band_DFT>  DM, time=0.000000
    1    C  MulP   2.0006  2.0006 sum   4.0012
    2    C  MulP   2.0008  2.0008 sum   4.0017
    3    C  MulP   2.0012  2.0012 sum   4.0023
    4    C  MulP   2.0002  2.0002 sum   4.0004
    5    C  MulP   2.0020  2.0020 sum   4.0041
    6    C  MulP   2.0003  2.0003 sum   4.0005
    7    C  MulP   2.0004  2.0004 sum   4.0008
    8    C  MulP   2.0015  2.0015 sum   4.0031
    9    C  MulP   2.0011  2.0011 sum   4.0021
   10    C  MulP   2.0011  2.0011 sum   4.0022
   11    C  MulP   1.9972  1.9972 sum   3.9943
   12    C  MulP   2.0018  2.0018 sum   4.0035
   13    C  MulP   2.0010  2.0010 sum   4.0021
   14    C  MulP   2.0004  2.0004 sum   4.0009
   15    C  MulP   2.0017  2.0017 sum   4.0033
   16    C  MulP   2.0004  2.0004 sum   4.0008
   17    C  MulP   2.0013  2.0013 sum   4.0026
   18    C  MulP   1.9981  1.9981 sum   3.9962
   19    C  MulP   1.9770  1.9770 sum   3.9541
   20    C  MulP   1.9825  1.9825 sum   3.9650
     ..........
     ......

 Sum of MulP: up   =   252.00000 down          =   252.00000
              total=   504.00000 ideal(neutral)=   504.00000
<DFT>  Total Spin Moment (muB) =  0.000000000000
<DFT>  Mixing_weight= 0.189037712806
<DFT>  Uele   = -236.764130985624  dUele     =   0.580261790402
<DFT>  NormRD =    1.268271949088  Criterion =   0.000000010000

******************* MD= 1  SCF=10 *******************
<Poisson>  Poisson's equation using FFT...
<Set_Hamiltonian>  Hamiltonian matrix for VNA+dVH+Vxc...
<Band>  Solving the eigenvalue problem...
 KGrids1:  -0.43750  -0.31250  -0.18750  -0.06250   0.06250   0.18750   0.31250   0.43750 
 KGrids2:  -0.43750  -0.31250  -0.18750  -0.06250   0.06250   0.18750   0.31250   0.43750 
 KGrids3:   0.00000 
<Band_DFT>  Eigen, time=12.022861
<Band_DFT>  DM, time=0.000001
    1    C  MulP   1.9990  1.9990 sum   3.9981
    2    C  MulP   1.9974  1.9974 sum   3.9949
    3    C  MulP   1.9975  1.9975 sum   3.9950
    4    C  MulP   1.9988  1.9988 sum   3.9977
    5    C  MulP   1.9981  1.9981 sum   3.9962
    6    C  MulP   1.9988  1.9988 sum   3.9976
    7    C  MulP   1.9990  1.9990 sum   3.9980
    8    C  MulP   1.9980  1.9980 sum   3.9959
    9    C  MulP   1.9993  1.9993 sum   3.9986
   10    C  MulP   1.9983  1.9983 sum   3.9966
   11    C  MulP   1.9946  1.9946 sum   3.9892
   12    C  MulP   1.9979  1.9979 sum   3.9959
   13    C  MulP   1.9986  1.9986 sum   3.9973
   14    C  MulP   1.9990  1.9990 sum   3.9980
   15    C  MulP   1.9980  1.9980 sum   3.9959
   16    C  MulP   1.9990  1.9990 sum   3.9981
   17    C  MulP   1.9974  1.9974 sum   3.9947
   18    C  MulP   1.9993  1.9993 sum   3.9986
   19    C  MulP   1.9839  1.9839 sum   3.9677
   20    C  MulP   1.9824  1.9824 sum   3.9648
     ..........
     ......

 Sum of MulP: up   =   252.00000 down          =   252.00000
              total=   504.00000 ideal(neutral)=   504.00000
<DFT>  Total Spin Moment (muB) =  0.000000000000
<DFT>  Mixing_weight= 0.300000000000
<DFT>  Uele   = -237.562031830226  dUele     =   0.797900844602
<DFT>  NormRD =    1.172447183158  Criterion =   0.000000010000

******************* MD= 1  SCF=11 *******************
<Poisson>  Poisson's equation using FFT...
<Set_Hamiltonian>  Hamiltonian matrix for VNA+dVH+Vxc...
<Band>  Solving the eigenvalue problem...
 KGrids1:  -0.43750  -0.31250  -0.18750  -0.06250   0.06250   0.18750   0.31250   0.43750 
 KGrids2:  -0.43750  -0.31250  -0.18750  -0.06250   0.06250   0.18750   0.31250   0.43750 
 KGrids3:   0.00000 
<Band_DFT>  Eigen, time=12.035126
<Band_DFT>  DM, time=0.000000
    1    C  MulP   1.9993  1.9993 sum   3.9986
    2    C  MulP   1.9993  1.9993 sum   3.9986
    3    C  MulP   2.0000  2.0000 sum   3.9999
    4    C  MulP   1.9988  1.9988 sum   3.9976
    5    C  MulP   1.9988  1.9988 sum   3.9975
    6    C  MulP   1.9990  1.9990 sum   3.9980
    7    C  MulP   1.9992  1.9992 sum   3.9983
    8    C  MulP   1.9982  1.9982 sum   3.9964
    9    C  MulP   1.9998  1.9998 sum   3.9995
   10    C  MulP   1.9965  1.9965 sum   3.9930
   11    C  MulP   1.9993  1.9993 sum   3.9986
   12    C  MulP   1.9978  1.9978 sum   3.9955
   13    C  MulP   2.0006  2.0006 sum   4.0012
   14    C  MulP   1.9992  1.9992 sum   3.9984
   15    C  MulP   1.9985  1.9985 sum   3.9969
   16    C  MulP   1.9991  1.9991 sum   3.9983
   17    C  MulP   1.9977  1.9977 sum   3.9954
   18    C  MulP   1.9983  1.9983 sum   3.9965
   19    C  MulP   1.9716  1.9716 sum   3.9433
   20    C  MulP   1.9794  1.9794 sum   3.9589
     ..........
     ......

 Sum of MulP: up   =   252.00000 down          =   252.00000
              total=   504.00000 ideal(neutral)=   504.00000
<DFT>  Total Spin Moment (muB) =  0.000000000000
<DFT>  Mixing_weight= 0.108884512030
<DFT>  Uele   = -238.752186313101  dUele     =   1.190154482875
<DFT>  NormRD =    1.553310130990  Criterion =   0.000000010000

******************* MD= 1  SCF=12 *******************
<Poisson>  Poisson's equation using FFT...
<Set_Hamiltonian>  Hamiltonian matrix for VNA+dVH+Vxc...
<Band>  Solving the eigenvalue problem...
 KGrids1:  -0.43750  -0.31250  -0.18750  -0.06250   0.06250   0.18750   0.31250   0.43750 
 KGrids2:  -0.43750  -0.31250  -0.18750  -0.06250   0.06250   0.18750   0.31250   0.43750 
 KGrids3:   0.00000 
<Band_DFT>  Eigen, time=12.021147
<Band_DFT>  DM, time=0.000000
    1    C  MulP   2.0004  2.0004 sum   4.0008
    2    C  MulP   2.0003  2.0003 sum   4.0006
    3    C  MulP   2.0005  2.0005 sum   4.0010
    4    C  MulP   2.0002  2.0002 sum   4.0004
    5    C  MulP   2.0013  2.0013 sum   4.0026
    6    C  MulP   2.0001  2.0001 sum   4.0001
    7    C  MulP   2.0003  2.0003 sum   4.0005
    8    C  MulP   2.0010  2.0010 sum   4.0021
    9    C  MulP   2.0006  2.0006 sum   4.0012
   10    C  MulP   2.0015  2.0015 sum   4.0030
   11    C  MulP   1.9966  1.9966 sum   3.9931
   12    C  MulP   2.0015  2.0015 sum   4.0031
   13    C  MulP   2.0009  2.0009 sum   4.0017
   14    C  MulP   2.0003  2.0003 sum   4.0006
   15    C  MulP   2.0010  2.0010 sum   4.0019
   16    C  MulP   2.0003  2.0003 sum   4.0005
   17    C  MulP   2.0005  2.0005 sum   4.0011
   18    C  MulP   1.9971  1.9971 sum   3.9941
   19    C  MulP   1.9819  1.9819 sum   3.9639
   20    C  MulP   1.9824  1.9824 sum   3.9648
     ..........
     ......

 Sum of MulP: up   =   252.00000 down          =   252.00000
              total=   504.00000 ideal(neutral)=   504.00000
<DFT>  Total Spin Moment (muB) =  0.000000000000
<DFT>  Mixing_weight= 0.133900046914
<DFT>  Uele   = -239.034621052389  dUele     =   0.282434739288
<DFT>  NormRD =    0.671386658575  Criterion =   0.000000010000

******************* MD= 1  SCF=13 *******************
<Poisson>  Poisson's equation using FFT...
<Set_Hamiltonian>  Hamiltonian matrix for VNA+dVH+Vxc...
<Band>  Solving the eigenvalue problem...
 KGrids1:  -0.43750  -0.31250  -0.18750  -0.06250   0.06250   0.18750   0.31250   0.43750 
 KGrids2:  -0.43750  -0.31250  -0.18750  -0.06250   0.06250   0.18750   0.31250   0.43750 
 KGrids3:   0.00000 
<Band_DFT>  Eigen, time=12.017416
<Band_DFT>  DM, time=0.000001
    1    C  MulP   1.9995  1.9995 sum   3.9990
    2    C  MulP   1.9990  1.9990 sum   3.9980
    3    C  MulP   1.9990  1.9990 sum   3.9980
    4    C  MulP   1.9993  1.9993 sum   3.9987
    5    C  MulP   1.9994  1.9994 sum   3.9987
    6    C  MulP   1.9993  1.9993 sum   3.9987
    7    C  MulP   1.9996  1.9996 sum   3.9992
    8    C  MulP   1.9992  1.9992 sum   3.9985
    9    C  MulP   2.0001  2.0001 sum   4.0001
   10    C  MulP   1.9990  1.9990 sum   3.9981
   11    C  MulP   1.9963  1.9963 sum   3.9926
   12    C  MulP   1.9986  1.9986 sum   3.9973
   13    C  MulP   1.9998  1.9998 sum   3.9996
   14    C  MulP   1.9996  1.9996 sum   3.9991
   15    C  MulP   1.9992  1.9992 sum   3.9985
   16    C  MulP   1.9996  1.9996 sum   3.9991
   17    C  MulP   1.9989  1.9989 sum   3.9977
   18    C  MulP   2.0013  2.0013 sum   4.0026
   19    C  MulP   1.9805  1.9805 sum   3.9610
   20    C  MulP   1.9783  1.9783 sum   3.9567
     ..........
     ......

 Sum of MulP: up   =   252.00000 down          =   252.00000
              total=   504.00000 ideal(neutral)=   504.00000
<DFT>  Total Spin Moment (muB) =  0.000000000000
<DFT>  Mixing_weight= 0.300000000000
<DFT>  Uele   = -239.344453400580  dUele     =   0.309832348191
<DFT>  NormRD =    0.587495841868  Criterion =   0.000000010000

******************* MD= 1  SCF=14 *******************
<Poisson>  Poisson's equation using FFT...
<Set_Hamiltonian>  Hamiltonian matrix for VNA+dVH+Vxc...
<Band>  Solving the eigenvalue problem...
 KGrids1:  -0.43750  -0.31250  -0.18750  -0.06250   0.06250   0.18750   0.31250   0.43750 
 KGrids2:  -0.43750  -0.31250  -0.18750  -0.06250   0.06250   0.18750   0.31250   0.43750 
 KGrids3:   0.00000 
<Band_DFT>  Eigen, time=12.017705
<Band_DFT>  DM, time=0.000000
    1    C  MulP   1.9991  1.9991 sum   3.9982
    2    C  MulP   1.9972  1.9972 sum   3.9945
    3    C  MulP   1.9977  1.9977 sum   3.9954
    4    C  MulP   1.9988  1.9988 sum   3.9976
    5    C  MulP   1.9978  1.9978 sum   3.9956
    6    C  MulP   1.9987  1.9987 sum   3.9975
    7    C  MulP   1.9989  1.9989 sum   3.9978
    8    C  MulP   1.9974  1.9974 sum   3.9947
    9    C  MulP   1.9986  1.9986 sum   3.9972
   10    C  MulP   1.9977  1.9977 sum   3.9953
   11    C  MulP   1.9951  1.9951 sum   3.9903
   12    C  MulP   1.9984  1.9984 sum   3.9969
   13    C  MulP   1.9995  1.9995 sum   3.9989
   14    C  MulP   1.9989  1.9989 sum   3.9979
   15    C  MulP   1.9975  1.9975 sum   3.9949
   16    C  MulP   1.9989  1.9989 sum   3.9978
   17    C  MulP   1.9964  1.9964 sum   3.9928
   18    C  MulP   1.9913  1.9913 sum   3.9826
   19    C  MulP   1.9810  1.9810 sum   3.9619
   20    C  MulP   1.9857  1.9857 sum   3.9715
     ..........
     ......

 Sum of MulP: up   =   252.00000 down          =   252.00000
              total=   504.00000 ideal(neutral)=   504.00000
<DFT>  Total Spin Moment (muB) =  0.000000000000
<DFT>  Mixing_weight= 0.070775351729
<DFT>  Uele   = -240.038062349154  dUele     =   0.693608948575
<DFT>  NormRD =    1.057290759246  Criterion =   0.000000010000

******************* MD= 1  SCF=15 *******************
<Poisson>  Poisson's equation using FFT...
<Set_Hamiltonian>  Hamiltonian matrix for VNA+dVH+Vxc...
<Band>  Solving the eigenvalue problem...
 KGrids1:  -0.43750  -0.31250  -0.18750  -0.06250   0.06250   0.18750   0.31250   0.43750 
 KGrids2:  -0.43750  -0.31250  -0.18750  -0.06250   0.06250   0.18750   0.31250   0.43750 
 KGrids3:   0.00000 
<Band_DFT>  Eigen, time=12.013035
<Band_DFT>  DM, time=0.000000
    1    C  MulP   1.9998  1.9998 sum   3.9997
    2    C  MulP   1.9994  1.9994 sum   3.9989
    3    C  MulP   1.9996  1.9996 sum   3.9992
    4    C  MulP   1.9997  1.9997 sum   3.9993
    5    C  MulP   2.0000  2.0000 sum   4.0000
    6    C  MulP   1.9996  1.9996 sum   3.9992
    7    C  MulP   1.9998  1.9998 sum   3.9996
    8    C  MulP   1.9998  1.9998 sum   3.9995
    9    C  MulP   2.0002  2.0002 sum   4.0003
   10    C  MulP   1.9999  1.9999 sum   3.9999
   11    C  MulP   1.9965  1.9965 sum   3.9931
   12    C  MulP   1.9999  1.9999 sum   3.9998
   13    C  MulP   2.0002  2.0002 sum   4.0004
   14    C  MulP   1.9998  1.9998 sum   3.9996
   15    C  MulP   1.9998  1.9998 sum   3.9995
   16    C  MulP   1.9998  1.9998 sum   3.9996
   17    C  MulP   1.9993  1.9993 sum   3.9986
   18    C  MulP   1.9988  1.9988 sum   3.9975
   19    C  MulP   1.9812  1.9812 sum   3.9623
   20    C  MulP   1.9806  1.9806 sum   3.9613
     ..........
     ......

 Sum of MulP: up   =   252.00000 down          =   252.00000
              total=   504.00000 ideal(neutral)=   504.00000
<DFT>  Total Spin Moment (muB) =  0.000000000000
<DFT>  Mixing_weight= 0.030000000000
<DFT>  Uele   = -240.169081593435  dUele     =   0.131019244281
<DFT>  NormRD =    0.336295033249  Criterion =   0.000000010000

******************* MD= 1  SCF=16 *******************
<Poisson>  Poisson's equation using FFT...
<Set_Hamiltonian>  Hamiltonian matrix for VNA+dVH+Vxc...
<Band>  Solving the eigenvalue problem...
 KGrids1:  -0.43750  -0.31250  -0.18750  -0.06250   0.06250   0.18750   0.31250   0.43750 
 KGrids2:  -0.43750  -0.31250  -0.18750  -0.06250   0.06250   0.18750   0.31250   0.43750 
 KGrids3:   0.00000 
<Band_DFT>  Eigen, time=12.027227
<Band_DFT>  DM, time=0.000000
    1    C  MulP   1.9973  1.9973 sum   3.9947
    2    C  MulP   1.9955  1.9955 sum   3.9909
    3    C  MulP   1.9957  1.9957 sum   3.9914
    4    C  MulP   1.9971  1.9971 sum   3.9942
    5    C  MulP   1.9949  1.9949 sum   3.9898
    6    C  MulP   1.9974  1.9974 sum   3.9948
    7    C  MulP   1.9976  1.9976 sum   3.9952
    8    C  MulP   1.9947  1.9947 sum   3.9894
    9    C  MulP   1.9980  1.9980 sum   3.9959
   10    C  MulP   1.9941  1.9941 sum   3.9883
   11    C  MulP   1.9953  1.9953 sum   3.9905
   12    C  MulP   1.9942  1.9942 sum   3.9884
   13    C  MulP   1.9979  1.9979 sum   3.9958
   14    C  MulP   1.9977  1.9977 sum   3.9953
   15    C  MulP   1.9948  1.9948 sum   3.9896
   16    C  MulP   1.9977  1.9977 sum   3.9953
   17    C  MulP   1.9945  1.9945 sum   3.9890
   18    C  MulP   2.0013  2.0013 sum   4.0026
   19    C  MulP   1.9781  1.9781 sum   3.9562
   20    C  MulP   1.9783  1.9783 sum   3.9566
     ..........
     ......

 Sum of MulP: up   =   252.00000 down          =   252.00000
              total=   504.00000 ideal(neutral)=   504.00000
<DFT>  Total Spin Moment (muB) =  0.000000000000
<DFT>  Mixing_weight= 0.030000000000
<DFT>  Uele   = -242.090197471993  dUele     =   1.921115878558
<DFT>  NormRD =    0.577246264525  Criterion =   0.000000010000

******************* MD= 1  SCF=17 *******************
<Poisson>  Poisson's equation using FFT...
<Set_Hamiltonian>  Hamiltonian matrix for VNA+dVH+Vxc...
<Band>  Solving the eigenvalue problem...
 KGrids1:  -0.43750  -0.31250  -0.18750  -0.06250   0.06250   0.18750   0.31250   0.43750 
 KGrids2:  -0.43750  -0.31250  -0.18750  -0.06250   0.06250   0.18750   0.31250   0.43750 
 KGrids3:   0.00000 
<Band_DFT>  Eigen, time=12.020924
<Band_DFT>  DM, time=0.000000
    1    C  MulP   2.0015  2.0015 sum   4.0030
    2    C  MulP   2.0013  2.0013 sum   4.0026
    3    C  MulP   2.0015  2.0015 sum   4.0030
    4    C  MulP   2.0013  2.0013 sum   4.0026
    5    C  MulP   2.0022  2.0022 sum   4.0043
    6    C  MulP   2.0009  2.0009 sum   4.0017
    7    C  MulP   2.0011  2.0011 sum   4.0022
    8    C  MulP   2.0020  2.0020 sum   4.0040
    9    C  MulP   2.0015  2.0015 sum   4.0029
   10    C  MulP   2.0026  2.0026 sum   4.0052
   11    C  MulP   1.9972  1.9972 sum   3.9944
   12    C  MulP   2.0025  2.0025 sum   4.0049
   13    C  MulP   2.0014  2.0014 sum   4.0027
   14    C  MulP   2.0010  2.0010 sum   4.0021
   15    C  MulP   2.0017  2.0017 sum   4.0035
   16    C  MulP   2.0010  2.0010 sum   4.0020
   17    C  MulP   2.0010  2.0010 sum   4.0019
   18    C  MulP   1.9979  1.9979 sum   3.9959
   19    C  MulP   1.9829  1.9829 sum   3.9657
   20    C  MulP   1.9822  1.9822 sum   3.9644
     ..........
     ......

 Sum of MulP: up   =   252.00000 down          =   252.00000
              total=   504.00000 ideal(neutral)=   504.00000
<DFT>  Total Spin Moment (muB) =  0.000000000000
<DFT>  Mixing_weight= 0.030000000000
<DFT>  Uele   = -242.426668653540  dUele     =   0.336471181547
<DFT>  NormRD =    0.526865043121  Criterion =   0.000000010000

******************* MD= 1  SCF=18 *******************
<Poisson>  Poisson's equation using FFT...
<Set_Hamiltonian>  Hamiltonian matrix for VNA+dVH+Vxc...
<Band>  Solving the eigenvalue problem...
 KGrids1:  -0.43750  -0.31250  -0.18750  -0.06250   0.06250   0.18750   0.31250   0.43750 
 KGrids2:  -0.43750  -0.31250  -0.18750  -0.06250   0.06250   0.18750   0.31250   0.43750 
 KGrids3:   0.00000 
<Band_DFT>  Eigen, time=12.044917
<Band_DFT>  DM, time=0.000001
    1    C  MulP   2.0010  2.0010 sum   4.0021
    2    C  MulP   2.0017  2.0017 sum   4.0035
    3    C  MulP   2.0021  2.0021 sum   4.0043
    4    C  MulP   2.0009  2.0009 sum   4.0017
    5    C  MulP   2.0024  2.0024 sum   4.0048
    6    C  MulP   2.0007  2.0007 sum   4.0015
    7    C  MulP   2.0009  2.0009 sum   4.0017
    8    C  MulP   2.0019  2.0019 sum   4.0037
    9    C  MulP   2.0013  2.0013 sum   4.0027
   10    C  MulP   2.0009  2.0009 sum   4.0018
   11    C  MulP   1.9981  1.9981 sum   3.9962
   12    C  MulP   2.0018  2.0018 sum   4.0035
   13    C  MulP   2.0021  2.0021 sum   4.0042
   14    C  MulP   2.0010  2.0010 sum   4.0021
   15    C  MulP   2.0021  2.0021 sum   4.0042
   16    C  MulP   2.0009  2.0009 sum   4.0017
   17    C  MulP   2.0015  2.0015 sum   4.0030
   18    C  MulP   1.9974  1.9974 sum   3.9947
   19    C  MulP   1.9744  1.9744 sum   3.9488
   20    C  MulP   1.9785  1.9785 sum   3.9571
     ..........
     ......

 Sum of MulP: up   =   252.00000 down          =   252.00000
              total=   504.00000 ideal(neutral)=   504.00000
<DFT>  Total Spin Moment (muB) =  0.000000000000
<DFT>  Mixing_weight= 0.030000000000
<DFT>  Uele   = -243.249881938383  dUele     =   0.823213284843
<DFT>  NormRD =    0.671116175934  Criterion =   0.000000010000

******************* MD= 1  SCF=19 *******************
<Poisson>  Poisson's equation using FFT...
<Set_Hamiltonian>  Hamiltonian matrix for VNA+dVH+Vxc...
<Band>  Solving the eigenvalue problem...
 KGrids1:  -0.43750  -0.31250  -0.18750  -0.06250   0.06250   0.18750   0.31250   0.43750 
 KGrids2:  -0.43750  -0.31250  -0.18750  -0.06250   0.06250   0.18750   0.31250   0.43750 
 KGrids3:   0.00000 
<Band_DFT>  Eigen, time=12.025535
<Band_DFT>  DM, time=0.000000
    1    C  MulP   1.9990  1.9990 sum   3.9981
    2    C  MulP   1.9985  1.9985 sum   3.9969
    3    C  MulP   1.9984  1.9984 sum   3.9968
    4    C  MulP   1.9988  1.9988 sum   3.9976
    5    C  MulP   1.9989  1.9989 sum   3.9979
    6    C  MulP   1.9989  1.9989 sum   3.9978
    7    C  MulP   1.9992  1.9992 sum   3.9983
    8    C  MulP   1.9988  1.9988 sum   3.9976
    9    C  MulP   1.9995  1.9995 sum   3.9989
   10    C  MulP   1.9995  1.9995 sum   3.9989
   11    C  MulP   1.9962  1.9962 sum   3.9924
   12    C  MulP   1.9990  1.9990 sum   3.9980
   13    C  MulP   1.9994  1.9994 sum   3.9987
   14    C  MulP   1.9991  1.9991 sum   3.9982
   15    C  MulP   1.9989  1.9989 sum   3.9978
   16    C  MulP   1.9991  1.9991 sum   3.9983
   17    C  MulP   1.9987  1.9987 sum   3.9974
   18    C  MulP   1.9984  1.9984 sum   3.9967
   19    C  MulP   1.9830  1.9830 sum   3.9659
   20    C  MulP   1.9817  1.9817 sum   3.9633
     ..........
     ......

 Sum of MulP: up   =   252.00000 down          =   252.00000
              total=   504.00000 ideal(neutral)=   504.00000
<DFT>  Total Spin Moment (muB) =  0.000000000000
<DFT>  Mixing_weight= 0.030000000000
<DFT>  Uele   = -243.590703182439  dUele     =   0.340821244055
<DFT>  NormRD =    0.134373293892  Criterion =   0.000000010000

******************* MD= 1  SCF=20 *******************
<Poisson>  Poisson's equation using FFT...
<Set_Hamiltonian>  Hamiltonian matrix for VNA+dVH+Vxc...
<Band>  Solving the eigenvalue problem...
 KGrids1:  -0.43750  -0.31250  -0.18750  -0.06250   0.06250   0.18750   0.31250   0.43750 
 KGrids2:  -0.43750  -0.31250  -0.18750  -0.06250   0.06250   0.18750   0.31250   0.43750 
 KGrids3:   0.00000 
<Band_DFT>  Eigen, time=12.040911
<Band_DFT>  DM, time=0.000000
    1    C  MulP   1.9999  1.9999 sum   3.9999
    2    C  MulP   1.9992  1.9992 sum   3.9984
    3    C  MulP   1.9994  1.9994 sum   3.9988
    4    C  MulP   1.9998  1.9998 sum   3.9995
    5    C  MulP   1.9998  1.9998 sum   3.9997
    6    C  MulP   1.9996  1.9996 sum   3.9993
    7    C  MulP   1.9998  1.9998 sum   3.9996
    8    C  MulP   1.9996  1.9996 sum   3.9992
    9    C  MulP   2.0001  2.0001 sum   4.0003
   10    C  MulP   1.9994  1.9994 sum   3.9988
   11    C  MulP   1.9964  1.9964 sum   3.9928
   12    C  MulP   1.9995  1.9995 sum   3.9991
   13    C  MulP   2.0002  2.0002 sum   4.0003
   14    C  MulP   1.9998  1.9998 sum   3.9997
   15    C  MulP   1.9996  1.9996 sum   3.9991
   16    C  MulP   1.9998  1.9998 sum   3.9997
   17    C  MulP   1.9989  1.9989 sum   3.9978
   18    C  MulP   1.9986  1.9986 sum   3.9972
   19    C  MulP   1.9808  1.9808 sum   3.9616
   20    C  MulP   1.9809  1.9809 sum   3.9619
     ..........
     ......

 Sum of MulP: up   =   252.00000 down          =   252.00000
              total=   504.00000 ideal(neutral)=   504.00000
<DFT>  Total Spin Moment (muB) =  0.000000000000
<DFT>  Mixing_weight= 0.030000000000
<DFT>  Uele   = -243.638862946015  dUele     =   0.048159763576
<DFT>  NormRD =    0.078111018115  Criterion =   0.000000010000

******************* MD= 1  SCF=21 *******************
<Poisson>  Poisson's equation using FFT...
<Set_Hamiltonian>  Hamiltonian matrix for VNA+dVH+Vxc...
<Band>  Solving the eigenvalue problem...
 KGrids1:  -0.43750  -0.31250  -0.18750  -0.06250   0.06250   0.18750   0.31250   0.43750 
 KGrids2:  -0.43750  -0.31250  -0.18750  -0.06250   0.06250   0.18750   0.31250   0.43750 
 KGrids3:   0.00000 
<Band_DFT>  Eigen, time=12.025791
<Band_DFT>  DM, time=0.000000
    1    C  MulP   1.9996  1.9996 sum   3.9991
    2    C  MulP   1.9990  1.9990 sum   3.9980
    3    C  MulP   1.9991  1.9991 sum   3.9983
    4    C  MulP   1.9993  1.9993 sum   3.9986
    5    C  MulP   1.9992  1.9992 sum   3.9985
    6    C  MulP   1.9993  1.9993 sum   3.9986
    7    C  MulP   1.9995  1.9995 sum   3.9991
    8    C  MulP   1.9991  1.9991 sum   3.9982
    9    C  MulP   2.0000  2.0000 sum   3.9999
   10    C  MulP   1.9994  1.9994 sum   3.9988
   11    C  MulP   1.9966  1.9966 sum   3.9931
   12    C  MulP   1.9992  1.9992 sum   3.9984
   13    C  MulP   1.9999  1.9999 sum   3.9998
   14    C  MulP   1.9995  1.9995 sum   3.9990
   15    C  MulP   1.9991  1.9991 sum   3.9982
   16    C  MulP   1.9995  1.9995 sum   3.9990
   17    C  MulP   1.9988  1.9988 sum   3.9976
   18    C  MulP   1.9991  1.9991 sum   3.9982
   19    C  MulP   1.9807  1.9807 sum   3.9614
   20    C  MulP   1.9804  1.9804 sum   3.9609
     ..........
     ......

 Sum of MulP: up   =   252.00000 down          =   252.00000
              total=   504.00000 ideal(neutral)=   504.00000
<DFT>  Total Spin Moment (muB) =  0.000000000000
<DFT>  Mixing_weight= 0.030000000000
<DFT>  Uele   = -243.627415069383  dUele     =   0.011447876632
<DFT>  NormRD =    0.023895640682  Criterion =   0.000000010000

******************* MD= 1  SCF=22 *******************
<Poisson>  Poisson's equation using FFT...
<Set_Hamiltonian>  Hamiltonian matrix for VNA+dVH+Vxc...
<Band>  Solving the eigenvalue problem...
 KGrids1:  -0.43750  -0.31250  -0.18750  -0.06250   0.06250   0.18750   0.31250   0.43750 
 KGrids2:  -0.43750  -0.31250  -0.18750  -0.06250   0.06250   0.18750   0.31250   0.43750 
 KGrids3:   0.00000 
<Band_DFT>  Eigen, time=12.056828
<Band_DFT>  DM, time=0.000000
    1    C  MulP   1.9996  1.9996 sum   3.9992
    2    C  MulP   1.9989  1.9989 sum   3.9979
    3    C  MulP   1.9992  1.9992 sum   3.9983
    4    C  MulP   1.9995  1.9995 sum   3.9990
    5    C  MulP   1.9995  1.9995 sum   3.9990
    6    C  MulP   1.9994  1.9994 sum   3.9989
    7    C  MulP   1.9996  1.9996 sum   3.9992
    8    C  MulP   1.9992  1.9992 sum   3.9984
    9    C  MulP   1.9999  1.9999 sum   3.9998
   10    C  MulP   1.9991  1.9991 sum   3.9983
   11    C  MulP   1.9964  1.9964 sum   3.9928
   12    C  MulP   1.9992  1.9992 sum   3.9984
   13    C  MulP   2.0000  2.0000 sum   4.0000
   14    C  MulP   1.9996  1.9996 sum   3.9993
   15    C  MulP   1.9992  1.9992 sum   3.9984
   16    C  MulP   1.9996  1.9996 sum   3.9992
   17    C  MulP   1.9986  1.9986 sum   3.9971
   18    C  MulP   1.9990  1.9990 sum   3.9980
   19    C  MulP   1.9807  1.9807 sum   3.9615
   20    C  MulP   1.9806  1.9806 sum   3.9612
     ..........
     ......

 Sum of MulP: up   =   252.00000 down          =   252.00000
              total=   504.00000 ideal(neutral)=   504.00000
<DFT>  Total Spin Moment (muB) =  0.000000000000
<DFT>  Mixing_weight= 0.030000000000
<DFT>  Uele   = -243.624177378758  dUele     =   0.003237690625
<DFT>  NormRD =    0.011918987293  Criterion =   0.000000010000

******************* MD= 1  SCF=23 *******************
<Poisson>  Poisson's equation using FFT...
<Set_Hamiltonian>  Hamiltonian matrix for VNA+dVH+Vxc...
<Band>  Solving the eigenvalue problem...
 KGrids1:  -0.43750  -0.31250  -0.18750  -0.06250   0.06250   0.18750   0.31250   0.43750 
 KGrids2:  -0.43750  -0.31250  -0.18750  -0.06250   0.06250   0.18750   0.31250   0.43750 
 KGrids3:   0.00000 
<Band_DFT>  Eigen, time=12.029450
<Band_DFT>  DM, time=0.000000
    1    C  MulP   1.9996  1.9996 sum   3.9992
    2    C  MulP   1.9989  1.9989 sum   3.9978
    3    C  MulP   1.9991  1.9991 sum   3.9981
    4    C  MulP   1.9994  1.9994 sum   3.9987
    5    C  MulP   1.9993  1.9993 sum   3.9985
    6    C  MulP   1.9993  1.9993 sum   3.9986
    7    C  MulP   1.9995  1.9995 sum   3.9991
    8    C  MulP   1.9991  1.9991 sum   3.9982
    9    C  MulP   2.0000  2.0000 sum   3.9999
   10    C  MulP   1.9991  1.9991 sum   3.9982
   11    C  MulP   1.9964  1.9964 sum   3.9929
   12    C  MulP   1.9990  1.9990 sum   3.9981
   13    C  MulP   1.9999  1.9999 sum   3.9998
   14    C  MulP   1.9996  1.9996 sum   3.9991
   15    C  MulP   1.9991  1.9991 sum   3.9982
   16    C  MulP   1.9996  1.9996 sum   3.9991
   17    C  MulP   1.9987  1.9987 sum   3.9974
   18    C  MulP   1.9991  1.9991 sum   3.9983
   19    C  MulP   1.9806  1.9806 sum   3.9612
   20    C  MulP   1.9804  1.9804 sum   3.9609
     ..........
     ......

 Sum of MulP: up   =   252.00000 down          =   252.00000
              total=   504.00000 ideal(neutral)=   504.00000
<DFT>  Total Spin Moment (muB) =  0.000000000000
<DFT>  Mixing_weight= 0.030000000000
<DFT>  Uele   = -243.623000034884  dUele     =   0.001177343874
<DFT>  NormRD =    0.003729277705  Criterion =   0.000000010000

******************* MD= 1  SCF=24 *******************
<Poisson>  Poisson's equation using FFT...
<Set_Hamiltonian>  Hamiltonian matrix for VNA+dVH+Vxc...
<Band>  Solving the eigenvalue problem...
 KGrids1:  -0.43750  -0.31250  -0.18750  -0.06250   0.06250   0.18750   0.31250   0.43750 
 KGrids2:  -0.43750  -0.31250  -0.18750  -0.06250   0.06250   0.18750   0.31250   0.43750 
 KGrids3:   0.00000 
<Band_DFT>  Eigen, time=12.022039
<Band_DFT>  DM, time=0.000001
    1    C  MulP   1.9996  1.9996 sum   3.9992
    2    C  MulP   1.9989  1.9989 sum   3.9979
    3    C  MulP   1.9991  1.9991 sum   3.9983
    4    C  MulP   1.9994  1.9994 sum   3.9988
    5    C  MulP   1.9993  1.9993 sum   3.9986
    6    C  MulP   1.9994  1.9994 sum   3.9987
    7    C  MulP   1.9996  1.9996 sum   3.9991
    8    C  MulP   1.9991  1.9991 sum   3.9982
    9    C  MulP   1.9999  1.9999 sum   3.9999
   10    C  MulP   1.9991  1.9991 sum   3.9983
   11    C  MulP   1.9965  1.9965 sum   3.9930
   12    C  MulP   1.9991  1.9991 sum   3.9982
   13    C  MulP   1.9999  1.9999 sum   3.9999
   14    C  MulP   1.9996  1.9996 sum   3.9992
   15    C  MulP   1.9991  1.9991 sum   3.9981
   16    C  MulP   1.9995  1.9995 sum   3.9991
   17    C  MulP   1.9986  1.9986 sum   3.9972
   18    C  MulP   1.9991  1.9991 sum   3.9983
   19    C  MulP   1.9805  1.9805 sum   3.9611
   20    C  MulP   1.9804  1.9804 sum   3.9609
     ..........
     ......

 Sum of MulP: up   =   252.00000 down          =   252.00000
              total=   504.00000 ideal(neutral)=   504.00000
<DFT>  Total Spin Moment (muB) =  0.000000000000
<DFT>  Mixing_weight= 0.030000000000
<DFT>  Uele   = -243.621898740795  dUele     =   0.001101294089
<DFT>  NormRD =    0.002693697887  Criterion =   0.000000010000

******************* MD= 1  SCF=25 *******************
<Poisson>  Poisson's equation using FFT...
<Set_Hamiltonian>  Hamiltonian matrix for VNA+dVH+Vxc...
<Band>  Solving the eigenvalue problem...
 KGrids1:  -0.43750  -0.31250  -0.18750  -0.06250   0.06250   0.18750   0.31250   0.43750 
 KGrids2:  -0.43750  -0.31250  -0.18750  -0.06250   0.06250   0.18750   0.31250   0.43750 
 KGrids3:   0.00000 
<Band_DFT>  Eigen, time=12.029301
<Band_DFT>  DM, time=0.000000
    1    C  MulP   1.9996  1.9996 sum   3.9992
    2    C  MulP   1.9989  1.9989 sum   3.9979
    3    C  MulP   1.9991  1.9991 sum   3.9982
    4    C  MulP   1.9994  1.9994 sum   3.9988
    5    C  MulP   1.9993  1.9993 sum   3.9986
    6    C  MulP   1.9994  1.9994 sum   3.9987
    7    C  MulP   1.9996  1.9996 sum   3.9991
    8    C  MulP   1.9991  1.9991 sum   3.9982
    9    C  MulP   1.9999  1.9999 sum   3.9999
   10    C  MulP   1.9991  1.9991 sum   3.9983
   11    C  MulP   1.9965  1.9965 sum   3.9929
   12    C  MulP   1.9991  1.9991 sum   3.9982
   13    C  MulP   1.9999  1.9999 sum   3.9999
   14    C  MulP   1.9996  1.9996 sum   3.9992
   15    C  MulP   1.9991  1.9991 sum   3.9982
   16    C  MulP   1.9996  1.9996 sum   3.9991
   17    C  MulP   1.9986  1.9986 sum   3.9972
   18    C  MulP   1.9992  1.9992 sum   3.9983
   19    C  MulP   1.9806  1.9806 sum   3.9612
   20    C  MulP   1.9805  1.9805 sum   3.9610
     ..........
     ......

 Sum of MulP: up   =   252.00000 down          =   252.00000
              total=   504.00000 ideal(neutral)=   504.00000
<DFT>  Total Spin Moment (muB) =  0.000000000000
<DFT>  Mixing_weight= 0.030000000000
<DFT>  Uele   = -243.621840005392  dUele     =   0.000058735403
<DFT>  NormRD =    0.004136813095  Criterion =   0.000000010000

******************* MD= 1  SCF=26 *******************
<Poisson>  Poisson's equation using FFT...
<Set_Hamiltonian>  Hamiltonian matrix for VNA+dVH+Vxc...
<Band>  Solving the eigenvalue problem...
 KGrids1:  -0.43750  -0.31250  -0.18750  -0.06250   0.06250   0.18750   0.31250   0.43750 
 KGrids2:  -0.43750  -0.31250  -0.18750  -0.06250   0.06250   0.18750   0.31250   0.43750 
 KGrids3:   0.00000 
<Band_DFT>  Eigen, time=12.030294
<Band_DFT>  DM, time=0.000000
    1    C  MulP   1.9996  1.9996 sum   3.9992
    2    C  MulP   1.9989  1.9989 sum   3.9979
    3    C  MulP   1.9991  1.9991 sum   3.9982
    4    C  MulP   1.9994  1.9994 sum   3.9988
    5    C  MulP   1.9993  1.9993 sum   3.9986
    6    C  MulP   1.9994  1.9994 sum   3.9987
    7    C  MulP   1.9996  1.9996 sum   3.9991
    8    C  MulP   1.9991  1.9991 sum   3.9982
    9    C  MulP   1.9999  1.9999 sum   3.9999
   10    C  MulP   1.9991  1.9991 sum   3.9983
   11    C  MulP   1.9965  1.9965 sum   3.9929
   12    C  MulP   1.9991  1.9991 sum   3.9982
   13    C  MulP   1.9999  1.9999 sum   3.9999
   14    C  MulP   1.9996  1.9996 sum   3.9992
   15    C  MulP   1.9991  1.9991 sum   3.9982
   16    C  MulP   1.9996  1.9996 sum   3.9991
   17    C  MulP   1.9986  1.9986 sum   3.9972
   18    C  MulP   1.9991  1.9991 sum   3.9983
   19    C  MulP   1.9806  1.9806 sum   3.9611
   20    C  MulP   1.9804  1.9804 sum   3.9609
     ..........
     ......

 Sum of MulP: up   =   252.00000 down          =   252.00000
              total=   504.00000 ideal(neutral)=   504.00000
<DFT>  Total Spin Moment (muB) =  0.000000000000
<DFT>  Mixing_weight= 0.030000000000
<DFT>  Uele   = -243.621811231569  dUele     =   0.000028773823
<DFT>  NormRD =    0.001112779532  Criterion =   0.000000010000

******************* MD= 1  SCF=27 *******************
<Poisson>  Poisson's equation using FFT...
<Set_Hamiltonian>  Hamiltonian matrix for VNA+dVH+Vxc...
<Band>  Solving the eigenvalue problem...
 KGrids1:  -0.43750  -0.31250  -0.18750  -0.06250   0.06250   0.18750   0.31250   0.43750 
 KGrids2:  -0.43750  -0.31250  -0.18750  -0.06250   0.06250   0.18750   0.31250   0.43750 
 KGrids3:   0.00000 
<Band_DFT>  Eigen, time=12.015967
<Band_DFT>  DM, time=0.000000
    1    C  MulP   1.9996  1.9996 sum   3.9992
    2    C  MulP   1.9989  1.9989 sum   3.9979
    3    C  MulP   1.9991  1.9991 sum   3.9982
    4    C  MulP   1.9994  1.9994 sum   3.9988
    5    C  MulP   1.9993  1.9993 sum   3.9986
    6    C  MulP   1.9994  1.9994 sum   3.9987
    7    C  MulP   1.9996  1.9996 sum   3.9991
    8    C  MulP   1.9991  1.9991 sum   3.9982
    9    C  MulP   1.9999  1.9999 sum   3.9999
   10    C  MulP   1.9991  1.9991 sum   3.9982
   11    C  MulP   1.9965  1.9965 sum   3.9929
   12    C  MulP   1.9991  1.9991 sum   3.9982
   13    C  MulP   1.9999  1.9999 sum   3.9999
   14    C  MulP   1.9996  1.9996 sum   3.9992
   15    C  MulP   1.9991  1.9991 sum   3.9982
   16    C  MulP   1.9996  1.9996 sum   3.9991
   17    C  MulP   1.9986  1.9986 sum   3.9972
   18    C  MulP   1.9991  1.9991 sum   3.9983
   19    C  MulP   1.9805  1.9805 sum   3.9611
   20    C  MulP   1.9804  1.9804 sum   3.9609
     ..........
     ......

 Sum of MulP: up   =   252.00000 down          =   252.00000
              total=   504.00000 ideal(neutral)=   504.00000
<DFT>  Total Spin Moment (muB) =  0.000000000000
<DFT>  Mixing_weight= 0.030000000000
<DFT>  Uele   = -243.621764234648  dUele     =   0.000046996921
<DFT>  NormRD =    0.000616843015  Criterion =   0.000000010000

******************* MD= 1  SCF=28 *******************
<Poisson>  Poisson's equation using FFT...
<Set_Hamiltonian>  Hamiltonian matrix for VNA+dVH+Vxc...
<Band>  Solving the eigenvalue problem...
 KGrids1:  -0.43750  -0.31250  -0.18750  -0.06250   0.06250   0.18750   0.31250   0.43750 
 KGrids2:  -0.43750  -0.31250  -0.18750  -0.06250   0.06250   0.18750   0.31250   0.43750 
 KGrids3:   0.00000 
<Band_DFT>  Eigen, time=12.044346
<Band_DFT>  DM, time=0.000001
    1    C  MulP   1.9996  1.9996 sum   3.9992
    2    C  MulP   1.9989  1.9989 sum   3.9979
    3    C  MulP   1.9991  1.9991 sum   3.9982
    4    C  MulP   1.9994  1.9994 sum   3.9988
    5    C  MulP   1.9993  1.9993 sum   3.9986
    6    C  MulP   1.9994  1.9994 sum   3.9987
    7    C  MulP   1.9996  1.9996 sum   3.9991
    8    C  MulP   1.9991  1.9991 sum   3.9982
    9    C  MulP   1.9999  1.9999 sum   3.9999
   10    C  MulP   1.9991  1.9991 sum   3.9983
   11    C  MulP   1.9965  1.9965 sum   3.9929
   12    C  MulP   1.9991  1.9991 sum   3.9982
   13    C  MulP   1.9999  1.9999 sum   3.9999
   14    C  MulP   1.9996  1.9996 sum   3.9992
   15    C  MulP   1.9991  1.9991 sum   3.9982
   16    C  MulP   1.9996  1.9996 sum   3.9991
   17    C  MulP   1.9986  1.9986 sum   3.9972
   18    C  MulP   1.9991  1.9991 sum   3.9983
   19    C  MulP   1.9805  1.9805 sum   3.9611
   20    C  MulP   1.9804  1.9804 sum   3.9609
     ..........
     ......

 Sum of MulP: up   =   252.00000 down          =   252.00000
              total=   504.00000 ideal(neutral)=   504.00000
<DFT>  Total Spin Moment (muB) =  0.000000000000
<DFT>  Mixing_weight= 0.030000000000
<DFT>  Uele   = -243.621868487632  dUele     =   0.000104252985
<DFT>  NormRD =    0.000636252391  Criterion =   0.000000010000

******************* MD= 1  SCF=29 *******************
<Poisson>  Poisson's equation using FFT...
<Set_Hamiltonian>  Hamiltonian matrix for VNA+dVH+Vxc...
<Band>  Solving the eigenvalue problem...
 KGrids1:  -0.43750  -0.31250  -0.18750  -0.06250   0.06250   0.18750   0.31250   0.43750 
 KGrids2:  -0.43750  -0.31250  -0.18750  -0.06250   0.06250   0.18750   0.31250   0.43750 
 KGrids3:   0.00000 
<Band_DFT>  Eigen, time=12.018565
<Band_DFT>  DM, time=0.000001
    1    C  MulP   1.9996  1.9996 sum   3.9992
    2    C  MulP   1.9989  1.9989 sum   3.9979
    3    C  MulP   1.9991  1.9991 sum   3.9982
    4    C  MulP   1.9994  1.9994 sum   3.9988
    5    C  MulP   1.9993  1.9993 sum   3.9986
    6    C  MulP   1.9994  1.9994 sum   3.9987
    7    C  MulP   1.9996  1.9996 sum   3.9991
    8    C  MulP   1.9991  1.9991 sum   3.9982
    9    C  MulP   1.9999  1.9999 sum   3.9999
   10    C  MulP   1.9991  1.9991 sum   3.9983
   11    C  MulP   1.9965  1.9965 sum   3.9929
   12    C  MulP   1.9991  1.9991 sum   3.9982
   13    C  MulP   1.9999  1.9999 sum   3.9999
   14    C  MulP   1.9996  1.9996 sum   3.9992
   15    C  MulP   1.9991  1.9991 sum   3.9982
   16    C  MulP   1.9996  1.9996 sum   3.9991
   17    C  MulP   1.9986  1.9986 sum   3.9972
   18    C  MulP   1.9991  1.9991 sum   3.9983
   19    C  MulP   1.9805  1.9805 sum   3.9611
   20    C  MulP   1.9804  1.9804 sum   3.9609
     ..........
     ......

 Sum of MulP: up   =   252.00000 down          =   252.00000
              total=   504.00000 ideal(neutral)=   504.00000
<DFT>  Total Spin Moment (muB) =  0.000000000000
<DFT>  Mixing_weight= 0.030000000000
<DFT>  Uele   = -243.621895923457  dUele     =   0.000027435824
<DFT>  NormRD =    0.000327410501  Criterion =   0.000000010000

******************* MD= 1  SCF=30 *******************
<Poisson>  Poisson's equation using FFT...
<Set_Hamiltonian>  Hamiltonian matrix for VNA+dVH+Vxc...
<Band>  Solving the eigenvalue problem...
 KGrids1:  -0.43750  -0.31250  -0.18750  -0.06250   0.06250   0.18750   0.31250   0.43750 
 KGrids2:  -0.43750  -0.31250  -0.18750  -0.06250   0.06250   0.18750   0.31250   0.43750 
 KGrids3:   0.00000 
<Band_DFT>  Eigen, time=12.032720
<Band_DFT>  DM, time=0.000000
    1    C  MulP   1.9996  1.9996 sum   3.9992
    2    C  MulP   1.9989  1.9989 sum   3.9979
    3    C  MulP   1.9991  1.9991 sum   3.9982
    4    C  MulP   1.9994  1.9994 sum   3.9988
    5    C  MulP   1.9993  1.9993 sum   3.9986
    6    C  MulP   1.9994  1.9994 sum   3.9987
    7    C  MulP   1.9996  1.9996 sum   3.9991
    8    C  MulP   1.9991  1.9991 sum   3.9982
    9    C  MulP   1.9999  1.9999 sum   3.9999
   10    C  MulP   1.9991  1.9991 sum   3.9982
   11    C  MulP   1.9965  1.9965 sum   3.9929
   12    C  MulP   1.9991  1.9991 sum   3.9982
   13    C  MulP   1.9999  1.9999 sum   3.9999
   14    C  MulP   1.9996  1.9996 sum   3.9992
   15    C  MulP   1.9991  1.9991 sum   3.9982
   16    C  MulP   1.9996  1.9996 sum   3.9991
   17    C  MulP   1.9986  1.9986 sum   3.9972
   18    C  MulP   1.9991  1.9991 sum   3.9983
   19    C  MulP   1.9805  1.9805 sum   3.9611
   20    C  MulP   1.9804  1.9804 sum   3.9609
     ..........
     ......

 Sum of MulP: up   =   252.00000 down          =   252.00000
              total=   504.00000 ideal(neutral)=   504.00000
<DFT>  Total Spin Moment (muB) =  0.000000000000
<DFT>  Mixing_weight= 0.030000000000
<DFT>  Uele   = -243.621902131443  dUele     =   0.000006207986
<DFT>  NormRD =    0.000295667839  Criterion =   0.000000010000

******************* MD= 1  SCF=31 *******************
<Poisson>  Poisson's equation using FFT...
<Set_Hamiltonian>  Hamiltonian matrix for VNA+dVH+Vxc...
<Band>  Solving the eigenvalue problem...
 KGrids1:  -0.43750  -0.31250  -0.18750  -0.06250   0.06250   0.18750   0.31250   0.43750 
 KGrids2:  -0.43750  -0.31250  -0.18750  -0.06250   0.06250   0.18750   0.31250   0.43750 
 KGrids3:   0.00000 
<Band_DFT>  Eigen, time=12.032066
<Band_DFT>  DM, time=0.000001
    1    C  MulP   1.9996  1.9996 sum   3.9992
    2    C  MulP   1.9989  1.9989 sum   3.9979
    3    C  MulP   1.9991  1.9991 sum   3.9982
    4    C  MulP   1.9994  1.9994 sum   3.9988
    5    C  MulP   1.9993  1.9993 sum   3.9986
    6    C  MulP   1.9994  1.9994 sum   3.9987
    7    C  MulP   1.9996  1.9996 sum   3.9991
    8    C  MulP   1.9991  1.9991 sum   3.9982
    9    C  MulP   1.9999  1.9999 sum   3.9999
   10    C  MulP   1.9991  1.9991 sum   3.9982
   11    C  MulP   1.9965  1.9965 sum   3.9929
   12    C  MulP   1.9991  1.9991 sum   3.9982
   13    C  MulP   1.9999  1.9999 sum   3.9999
   14    C  MulP   1.9996  1.9996 sum   3.9992
   15    C  MulP   1.9991  1.9991 sum   3.9982
   16    C  MulP   1.9996  1.9996 sum   3.9991
   17    C  MulP   1.9986  1.9986 sum   3.9972
   18    C  MulP   1.9991  1.9991 sum   3.9983
   19    C  MulP   1.9805  1.9805 sum   3.9611
   20    C  MulP   1.9804  1.9804 sum   3.9609
     ..........
     ......

 Sum of MulP: up   =   252.00000 down          =   252.00000
              total=   504.00000 ideal(neutral)=   504.00000
<DFT>  Total Spin Moment (muB) =  0.000000000000
<DFT>  Mixing_weight= 0.030000000000
<DFT>  Uele   = -243.621907495989  dUele     =   0.000005364546
<DFT>  NormRD =    0.000167384161  Criterion =   0.000000010000

******************* MD= 1  SCF=32 *******************
<Poisson>  Poisson's equation using FFT...
<Set_Hamiltonian>  Hamiltonian matrix for VNA+dVH+Vxc...
<Band>  Solving the eigenvalue problem...
 KGrids1:  -0.43750  -0.31250  -0.18750  -0.06250   0.06250   0.18750   0.31250   0.43750 
 KGrids2:  -0.43750  -0.31250  -0.18750  -0.06250   0.06250   0.18750   0.31250   0.43750 
 KGrids3:   0.00000 
<Band_DFT>  Eigen, time=12.036630
<Band_DFT>  DM, time=0.000000
    1    C  MulP   1.9996  1.9996 sum   3.9992
    2    C  MulP   1.9989  1.9989 sum   3.9979
    3    C  MulP   1.9991  1.9991 sum   3.9982
    4    C  MulP   1.9994  1.9994 sum   3.9988
    5    C  MulP   1.9993  1.9993 sum   3.9986
    6    C  MulP   1.9994  1.9994 sum   3.9987
    7    C  MulP   1.9996  1.9996 sum   3.9991
    8    C  MulP   1.9991  1.9991 sum   3.9982
    9    C  MulP   1.9999  1.9999 sum   3.9999
   10    C  MulP   1.9991  1.9991 sum   3.9982
   11    C  MulP   1.9965  1.9965 sum   3.9929
   12    C  MulP   1.9991  1.9991 sum   3.9982
   13    C  MulP   1.9999  1.9999 sum   3.9999
   14    C  MulP   1.9996  1.9996 sum   3.9992
   15    C  MulP   1.9991  1.9991 sum   3.9982
   16    C  MulP   1.9996  1.9996 sum   3.9991
   17    C  MulP   1.9986  1.9986 sum   3.9972
   18    C  MulP   1.9991  1.9991 sum   3.9983
   19    C  MulP   1.9805  1.9805 sum   3.9611
   20    C  MulP   1.9804  1.9804 sum   3.9609
     ..........
     ......

 Sum of MulP: up   =   252.00000 down          =   252.00000
              total=   504.00000 ideal(neutral)=   504.00000
<DFT>  Total Spin Moment (muB) =  0.000000000000
<DFT>  Mixing_weight= 0.030000000000
<DFT>  Uele   = -243.621920577375  dUele     =   0.000013081386
<DFT>  NormRD =    0.000122817080  Criterion =   0.000000010000

******************* MD= 1  SCF=33 *******************
<Poisson>  Poisson's equation using FFT...
<Set_Hamiltonian>  Hamiltonian matrix for VNA+dVH+Vxc...
<Band>  Solving the eigenvalue problem...
 KGrids1:  -0.43750  -0.31250  -0.18750  -0.06250   0.06250   0.18750   0.31250   0.43750 
 KGrids2:  -0.43750  -0.31250  -0.18750  -0.06250   0.06250   0.18750   0.31250   0.43750 
 KGrids3:   0.00000 
<Band_DFT>  Eigen, time=12.034945
<Band_DFT>  DM, time=0.000000
    1    C  MulP   1.9996  1.9996 sum   3.9992
    2    C  MulP   1.9989  1.9989 sum   3.9979
    3    C  MulP   1.9991  1.9991 sum   3.9982
    4    C  MulP   1.9994  1.9994 sum   3.9988
    5    C  MulP   1.9993  1.9993 sum   3.9986
    6    C  MulP   1.9994  1.9994 sum   3.9987
    7    C  MulP   1.9996  1.9996 sum   3.9991
    8    C  MulP   1.9991  1.9991 sum   3.9982
    9    C  MulP   1.9999  1.9999 sum   3.9999
   10    C  MulP   1.9991  1.9991 sum   3.9982
   11    C  MulP   1.9965  1.9965 sum   3.9929
   12    C  MulP   1.9991  1.9991 sum   3.9982
   13    C  MulP   1.9999  1.9999 sum   3.9999
   14    C  MulP   1.9996  1.9996 sum   3.9992
   15    C  MulP   1.9991  1.9991 sum   3.9982
   16    C  MulP   1.9996  1.9996 sum   3.9991
   17    C  MulP   1.9986  1.9986 sum   3.9972
   18    C  MulP   1.9991  1.9991 sum   3.9983
   19    C  MulP   1.9805  1.9805 sum   3.9611
   20    C  MulP   1.9804  1.9804 sum   3.9609
     ..........
     ......

 Sum of MulP: up   =   252.00000 down          =   252.00000
              total=   504.00000 ideal(neutral)=   504.00000
<DFT>  Total Spin Moment (muB) =  0.000000000000
<DFT>  Mixing_weight= 0.030000000000
<DFT>  Uele   = -243.621918899448  dUele     =   0.000001677927
<DFT>  NormRD =    0.000081056393  Criterion =   0.000000010000

******************* MD= 1  SCF=34 *******************
<Poisson>  Poisson's equation using FFT...
<Set_Hamiltonian>  Hamiltonian matrix for VNA+dVH+Vxc...
<Band>  Solving the eigenvalue problem...
 KGrids1:  -0.43750  -0.31250  -0.18750  -0.06250   0.06250   0.18750   0.31250   0.43750 
 KGrids2:  -0.43750  -0.31250  -0.18750  -0.06250   0.06250   0.18750   0.31250   0.43750 
 KGrids3:   0.00000 
<Band_DFT>  Eigen, time=12.019003
<Band_DFT>  DM, time=0.000001
    1    C  MulP   1.9996  1.9996 sum   3.9992
    2    C  MulP   1.9989  1.9989 sum   3.9979
    3    C  MulP   1.9991  1.9991 sum   3.9982
    4    C  MulP   1.9994  1.9994 sum   3.9988
    5    C  MulP   1.9993  1.9993 sum   3.9986
    6    C  MulP   1.9994  1.9994 sum   3.9987
    7    C  MulP   1.9996  1.9996 sum   3.9991
    8    C  MulP   1.9991  1.9991 sum   3.9982
    9    C  MulP   1.9999  1.9999 sum   3.9999
   10    C  MulP   1.9991  1.9991 sum   3.9982
   11    C  MulP   1.9965  1.9965 sum   3.9929
   12    C  MulP   1.9991  1.9991 sum   3.9982
   13    C  MulP   1.9999  1.9999 sum   3.9999
   14    C  MulP   1.9996  1.9996 sum   3.9992
   15    C  MulP   1.9991  1.9991 sum   3.9982
   16    C  MulP   1.9996  1.9996 sum   3.9991
   17    C  MulP   1.9986  1.9986 sum   3.9972
   18    C  MulP   1.9991  1.9991 sum   3.9983
   19    C  MulP   1.9805  1.9805 sum   3.9611
   20    C  MulP   1.9804  1.9804 sum   3.9609
     ..........
     ......

 Sum of MulP: up   =   252.00000 down          =   252.00000
              total=   504.00000 ideal(neutral)=   504.00000
<DFT>  Total Spin Moment (muB) =  0.000000000000
<DFT>  Mixing_weight= 0.030000000000
<DFT>  Uele   = -243.621913808492  dUele     =   0.000005090956
<DFT>  NormRD =    0.000033980962  Criterion =   0.000000010000

******************* MD= 1  SCF=35 *******************
<Poisson>  Poisson's equation using FFT...
<Set_Hamiltonian>  Hamiltonian matrix for VNA+dVH+Vxc...
<Band>  Solving the eigenvalue problem...
 KGrids1:  -0.43750  -0.31250  -0.18750  -0.06250   0.06250   0.18750   0.31250   0.43750 
 KGrids2:  -0.43750  -0.31250  -0.18750  -0.06250   0.06250   0.18750   0.31250   0.43750 
 KGrids3:   0.00000 
<Band_DFT>  Eigen, time=12.040841
<Band_DFT>  DM, time=0.000000
    1    C  MulP   1.9996  1.9996 sum   3.9992
    2    C  MulP   1.9989  1.9989 sum   3.9979
    3    C  MulP   1.9991  1.9991 sum   3.9982
    4    C  MulP   1.9994  1.9994 sum   3.9988
    5    C  MulP   1.9993  1.9993 sum   3.9986
    6    C  MulP   1.9994  1.9994 sum   3.9987
    7    C  MulP   1.9996  1.9996 sum   3.9991
    8    C  MulP   1.9991  1.9991 sum   3.9982
    9    C  MulP   1.9999  1.9999 sum   3.9999
   10    C  MulP   1.9991  1.9991 sum   3.9982
   11    C  MulP   1.9965  1.9965 sum   3.9929
   12    C  MulP   1.9991  1.9991 sum   3.9982
   13    C  MulP   1.9999  1.9999 sum   3.9999
   14    C  MulP   1.9996  1.9996 sum   3.9992
   15    C  MulP   1.9991  1.9991 sum   3.9982
   16    C  MulP   1.9996  1.9996 sum   3.9991
   17    C  MulP   1.9986  1.9986 sum   3.9972
   18    C  MulP   1.9991  1.9991 sum   3.9983
   19    C  MulP   1.9805  1.9805 sum   3.9611
   20    C  MulP   1.9804  1.9804 sum   3.9609
     ..........
     ......

 Sum of MulP: up   =   252.00000 down          =   252.00000
              total=   504.00000 ideal(neutral)=   504.00000
<DFT>  Total Spin Moment (muB) =  0.000000000000
<DFT>  Mixing_weight= 0.030000000000
<DFT>  Uele   = -243.621909511178  dUele     =   0.000004297314
<DFT>  NormRD =    0.000006523880  Criterion =   0.000000010000

******************* MD= 1  SCF=36 *******************
<Poisson>  Poisson's equation using FFT...
<Set_Hamiltonian>  Hamiltonian matrix for VNA+dVH+Vxc...
<Band>  Solving the eigenvalue problem...
 KGrids1:  -0.43750  -0.31250  -0.18750  -0.06250   0.06250   0.18750   0.31250   0.43750 
 KGrids2:  -0.43750  -0.31250  -0.18750  -0.06250   0.06250   0.18750   0.31250   0.43750 
 KGrids3:   0.00000 
<Band_DFT>  Eigen, time=12.050029
<Band_DFT>  DM, time=0.000000
    1    C  MulP   1.9996  1.9996 sum   3.9992
    2    C  MulP   1.9989  1.9989 sum   3.9979
    3    C  MulP   1.9991  1.9991 sum   3.9982
    4    C  MulP   1.9994  1.9994 sum   3.9988
    5    C  MulP   1.9993  1.9993 sum   3.9986
    6    C  MulP   1.9994  1.9994 sum   3.9987
    7    C  MulP   1.9996  1.9996 sum   3.9991
    8    C  MulP   1.9991  1.9991 sum   3.9982
    9    C  MulP   1.9999  1.9999 sum   3.9999
   10    C  MulP   1.9991  1.9991 sum   3.9982
   11    C  MulP   1.9965  1.9965 sum   3.9929
   12    C  MulP   1.9991  1.9991 sum   3.9982
   13    C  MulP   1.9999  1.9999 sum   3.9999
   14    C  MulP   1.9996  1.9996 sum   3.9992
   15    C  MulP   1.9991  1.9991 sum   3.9982
   16    C  MulP   1.9996  1.9996 sum   3.9991
   17    C  MulP   1.9986  1.9986 sum   3.9972
   18    C  MulP   1.9991  1.9991 sum   3.9983
   19    C  MulP   1.9805  1.9805 sum   3.9611
   20    C  MulP   1.9804  1.9804 sum   3.9609
     ..........
     ......

 Sum of MulP: up   =   252.00000 down          =   252.00000
              total=   504.00000 ideal(neutral)=   504.00000
<DFT>  Total Spin Moment (muB) =  0.000000000000
<DFT>  Mixing_weight= 0.030000000000
<DFT>  Uele   = -243.621907183127  dUele     =   0.000002328052
<DFT>  NormRD =    0.000002885880  Criterion =   0.000000010000

******************* MD= 1  SCF=37 *******************
<Poisson>  Poisson's equation using FFT...
<Set_Hamiltonian>  Hamiltonian matrix for VNA+dVH+Vxc...
<Band>  Solving the eigenvalue problem...
 KGrids1:  -0.43750  -0.31250  -0.18750  -0.06250   0.06250   0.18750   0.31250   0.43750 
 KGrids2:  -0.43750  -0.31250  -0.18750  -0.06250   0.06250   0.18750   0.31250   0.43750 
 KGrids3:   0.00000 
<Band_DFT>  Eigen, time=12.021822
<Band_DFT>  DM, time=0.000000
    1    C  MulP   1.9996  1.9996 sum   3.9992
    2    C  MulP   1.9989  1.9989 sum   3.9979
    3    C  MulP   1.9991  1.9991 sum   3.9982
    4    C  MulP   1.9994  1.9994 sum   3.9988
    5    C  MulP   1.9993  1.9993 sum   3.9986
    6    C  MulP   1.9994  1.9994 sum   3.9987
    7    C  MulP   1.9996  1.9996 sum   3.9991
    8    C  MulP   1.9991  1.9991 sum   3.9982
    9    C  MulP   1.9999  1.9999 sum   3.9999
   10    C  MulP   1.9991  1.9991 sum   3.9982
   11    C  MulP   1.9965  1.9965 sum   3.9929
   12    C  MulP   1.9991  1.9991 sum   3.9982
   13    C  MulP   1.9999  1.9999 sum   3.9999
   14    C  MulP   1.9996  1.9996 sum   3.9992
   15    C  MulP   1.9991  1.9991 sum   3.9982
   16    C  MulP   1.9996  1.9996 sum   3.9991
   17    C  MulP   1.9986  1.9986 sum   3.9972
   18    C  MulP   1.9991  1.9991 sum   3.9983
   19    C  MulP   1.9805  1.9805 sum   3.9611
   20    C  MulP   1.9804  1.9804 sum   3.9609
     ..........
     ......

 Sum of MulP: up   =   252.00000 down          =   252.00000
              total=   504.00000 ideal(neutral)=   504.00000
<DFT>  Total Spin Moment (muB) =  0.000000000000
<DFT>  Mixing_weight= 0.030000000000
<DFT>  Uele   = -243.621907039977  dUele     =   0.000000143149
<DFT>  NormRD =    0.000001177209  Criterion =   0.000000010000

******************* MD= 1  SCF=38 *******************
<Poisson>  Poisson's equation using FFT...
<Set_Hamiltonian>  Hamiltonian matrix for VNA+dVH+Vxc...
<Band>  Solving the eigenvalue problem...
 KGrids1:  -0.43750  -0.31250  -0.18750  -0.06250   0.06250   0.18750   0.31250   0.43750 
 KGrids2:  -0.43750  -0.31250  -0.18750  -0.06250   0.06250   0.18750   0.31250   0.43750 
 KGrids3:   0.00000 
<Band_DFT>  Eigen, time=12.034622
<Band_DFT>  DM, time=0.000001
    1    C  MulP   1.9996  1.9996 sum   3.9992
    2    C  MulP   1.9989  1.9989 sum   3.9979
    3    C  MulP   1.9991  1.9991 sum   3.9982
    4    C  MulP   1.9994  1.9994 sum   3.9988
    5    C  MulP   1.9993  1.9993 sum   3.9986
    6    C  MulP   1.9994  1.9994 sum   3.9987
    7    C  MulP   1.9996  1.9996 sum   3.9991
    8    C  MulP   1.9991  1.9991 sum   3.9982
    9    C  MulP   1.9999  1.9999 sum   3.9999
   10    C  MulP   1.9991  1.9991 sum   3.9982
   11    C  MulP   1.9965  1.9965 sum   3.9929
   12    C  MulP   1.9991  1.9991 sum   3.9982
   13    C  MulP   1.9999  1.9999 sum   3.9999
   14    C  MulP   1.9996  1.9996 sum   3.9992
   15    C  MulP   1.9991  1.9991 sum   3.9982
   16    C  MulP   1.9996  1.9996 sum   3.9991
   17    C  MulP   1.9986  1.9986 sum   3.9972
   18    C  MulP   1.9991  1.9991 sum   3.9983
   19    C  MulP   1.9805  1.9805 sum   3.9611
   20    C  MulP   1.9804  1.9804 sum   3.9609
     ..........
     ......

[...]
   15    C  MulP   1.9991  1.9991 sum   3.9981
   16    C  MulP   1.9995  1.9995 sum   3.9991
   17    C  MulP   1.9986  1.9986 sum   3.9972
   18    C  MulP   1.9990  1.9990 sum   3.9981
   19    C  MulP   1.9806  1.9806 sum   3.9612
   20    C  MulP   1.9805  1.9805 sum   3.9609
     ..........
     ......

 Sum of MulP: up   =   252.00000 down          =   252.00000
              total=   504.00000 ideal(neutral)=   504.00000
<DFT>  Total Spin Moment (muB) =  0.000000000000
<DFT>  Mixing_weight= 0.030000000000
<DFT>  Uele   = -243.561565470610  dUele     =   0.000000011294
<DFT>  NormRD =    0.000000353612  Criterion =   0.000000010000

******************* MD=46  SCF=20 *******************
<Poisson>  Poisson's equation using FFT...
<Set_Hamiltonian>  Hamiltonian matrix for VNA+dVH+Vxc...
<Band>  Solving the eigenvalue problem...
 KGrids1:  -0.43750  -0.31250  -0.18750  -0.06250   0.06250   0.18750   0.31250   0.43750 
 KGrids2:  -0.43750  -0.31250  -0.18750  -0.06250   0.06250   0.18750   0.31250   0.43750 
 KGrids3:   0.00000 
<Band_DFT>  Eigen, time=12.126043
<Band_DFT>  DM, time=0.000001
    1    C  MulP   1.9996  1.9996 sum   3.9991
    2    C  MulP   1.9989  1.9989 sum   3.9978
    3    C  MulP   1.9991  1.9991 sum   3.9982
    4    C  MulP   1.9994  1.9994 sum   3.9987
    5    C  MulP   1.9993  1.9993 sum   3.9986
    6    C  MulP   1.9993  1.9993 sum   3.9986
    7    C  MulP   1.9995  1.9995 sum   3.9991
    8    C  MulP   1.9991  1.9991 sum   3.9981
    9    C  MulP   1.9999  1.9999 sum   3.9998
   10    C  MulP   1.9991  1.9991 sum   3.9981
   11    C  MulP   1.9965  1.9965 sum   3.9930
   12    C  MulP   1.9990  1.9990 sum   3.9980
   13    C  MulP   1.9999  1.9999 sum   3.9998
   14    C  MulP   1.9995  1.9995 sum   3.9991
   15    C  MulP   1.9991  1.9991 sum   3.9981
   16    C  MulP   1.9995  1.9995 sum   3.9991
   17    C  MulP   1.9986  1.9986 sum   3.9972
   18    C  MulP   1.9990  1.9990 sum   3.9981
   19    C  MulP   1.9806  1.9806 sum   3.9612
   20    C  MulP   1.9805  1.9805 sum   3.9609
     ..........
     ......

 Sum of MulP: up   =   252.00000 down          =   252.00000
              total=   504.00000 ideal(neutral)=   504.00000
<DFT>  Total Spin Moment (muB) =  0.000000000000
<DFT>  Mixing_weight= 0.030000000000
<DFT>  Uele   = -243.561565477616  dUele     =   0.000000007006
<DFT>  NormRD =    0.000000135288  Criterion =   0.000000010000
<MD=46>  Force calculation
  Force calculation #1
  Force calculation #2
  Force calculation #3
  Force calculation #4
  Force calculation #5
<MD=46>  Total Energy
  Force calculation #6
  Force calculation #7

*******************************************************
                  Dipole moment (Debye)                 
*******************************************************

 Absolute D        0.75940945

                      Dx                Dy                Dz
 Total              0.21291821        0.39371594       -0.61347886
 Core           11945.95539803    20691.01583695    25762.69540482
 Electron      -11945.74247982   -20690.62212101   -25763.30888368
 Back ground       -0.00000000       -0.00000000       -0.00000000

*******************************************************
                Total Energy (Hartree) at MD =46        
*******************************************************

  Uele  =    -243.561565477616

  Ukin  =     533.916829871355
  UH0   =   -6996.288642914172
  UH1   =       1.872340532580
  Una   =    -386.777681221258
  Unl   =     -58.744197163881
  Uxc0  =    -122.632221310630
  Uxc1  =    -122.632221310630
  Ucore =    6400.728732614026
  Uhub  =       0.000000000000
  Ucs   =       0.000000000000
  Uzs   =       0.000000000000
  Uzo   =       0.000000000000
  Uef   =       0.000000000000
  UvdW  =       0.000000000000
  Uch   =       0.000000000000
  Utot  =    -750.557060902612

  UpV   =       0.000000000000
  Enpy  =    -750.557060902612
  Note:

  Uele:   band energy
  Ukin:   kinetic energy
  UH0:    electric part of screened Coulomb energy
  UH1:    difference electron-electron Coulomb energy
  Una:    neutral atom potential energy
  Unl:    non-local potential energy
  Uxc0:   exchange-correlation energy for alpha spin
  Uxc1:   exchange-correlation energy for beta spin
  Ucore:  core-core Coulomb energy
  Uhub:   LDA+U energy
  Ucs:    constraint energy for spin orientation
  Uzs:    Zeeman term for spin magnetic moment
  Uzo:    Zeeman term for orbital magnetic moment
  Uef:    electric energy by electric field
  UvdW:   semi-empirical vdW energy 
  Uch:    penalty term to create a core hole
  UpV:    pressure times volume
  Enpy:   Enthalpy = Utot + UpV
  (see also PRB 72, 045121(2005) for the energy contributions)


*******************************************************
           Computational times (s) at MD =46            
*******************************************************

  DFT in total      =  285.99921

  Set_OLP_Kin       =    0.57975
  Set_Nonlocal      =    2.12451
  Set_ProExpn_VNA   =    3.55861
  Set_Hamiltonian   =   14.33641
  Poisson           =    0.23197
  diagonalization   =  252.05052
  Mixing_DM         =    2.10904
  Force             =    2.94486
  Total_Energy      =    0.90090
  Set_Aden_Grid     =    0.21025
  Set_Orbitals_Grid =    0.27829
  Set_Density_Grid  =    5.77926
  RestartFileDFT    =    0.33112
  Mulliken_Charge   =    0.01308
  FFT(2D)_Density   =    0.24699

The SCF was achieved at MD=  46

*******************************************************
             MD or geometry opt. at MD =46              
*******************************************************


The geometry optimization was achieved.
<RF>  |Maximum force| (Hartree/Bohr) = 0.000091705338
<RF>  Criterion       (Hartree/Bohr) = 0.000100000000

     atom=   1, XYZ(ang) Fxyz(a.u.)=   0.0011    1.4258   10.5416    -0.0000   -0.0000   -0.0000
     atom=   2, XYZ(ang) Fxyz(a.u.)=  -1.2337    3.5628   10.5373    -0.0000   -0.0000   -0.0000
     atom=   3, XYZ(ang) Fxyz(a.u.)=  -2.4661    5.6976   10.5333    -0.0000   -0.0000    0.0000
     atom=   4, XYZ(ang) Fxyz(a.u.)=  -3.6994    7.8353   10.5322     0.0000    0.0000    0.0001
     atom=   5, XYZ(ang) Fxyz(a.u.)=  -4.9345    9.9710   10.5321     0.0000    0.0000   -0.0000
     atom=   6, XYZ(ang) Fxyz(a.u.)=  -6.1684   12.1081   10.5327    -0.0000   -0.0000   -0.0000
     atom=   7, XYZ(ang) Fxyz(a.u.)=  -7.4020   14.2448   10.5371    -0.0000    0.0000    0.0001
     atom=   8, XYZ(ang) Fxyz(a.u.)=  -8.6360   16.3821   10.5415    -0.0000    0.0000    0.0001
     atom=   9, XYZ(ang) Fxyz(a.u.)=   2.4680    1.4282   10.5419    -0.0000   -0.0000    0.0000
     atom=  10, XYZ(ang) Fxyz(a.u.)=   1.2356    3.5648   10.5408    -0.0000    0.0000   -0.0000
     atom=  11, XYZ(ang) Fxyz(a.u.)=   0.0024    5.6997   10.5369    -0.0000    0.0000    0.0000
     atom=  12, XYZ(ang) Fxyz(a.u.)=  -1.2294    7.8352   10.5339    -0.0000    0.0000    0.0001
     atom=  13, XYZ(ang) Fxyz(a.u.)=  -2.4636    9.9706   10.5329     0.0000    0.0000    0.0000
     atom=  14, XYZ(ang) Fxyz(a.u.)=  -3.7003   12.1081   10.5329     0.0000   -0.0000   -0.0000
     atom=  15, XYZ(ang) Fxyz(a.u.)=  -4.9344   14.2450   10.5349    -0.0000    0.0000   -0.0000
     atom=  16, XYZ(ang) Fxyz(a.u.)=  -6.1682   16.3820   10.5390    -0.0000    0.0000   -0.0000
     atom=  17, XYZ(ang) Fxyz(a.u.)=   4.9344    1.4236   10.5409    -0.0000   -0.0000    0.0001
     atom=  18, XYZ(ang) Fxyz(a.u.)=   3.7070    3.5649   10.5420    -0.0000   -0.0000    0.0000
     atom=  19, XYZ(ang) Fxyz(a.u.)=   2.4751    5.7156   10.5406     0.0000    0.0001   -0.0000
     atom=  20, XYZ(ang) Fxyz(a.u.)=   1.2532    7.8331   10.5371    -0.0000    0.0000   -0.0000
     atom=  21, XYZ(ang) Fxyz(a.u.)=   0.0069    9.9752   10.5351    -0.0000    0.0000   -0.0000
     atom=  22, XYZ(ang) Fxyz(a.u.)=  -1.2341   12.1088   10.5346     0.0000    0.0000   -0.0000
     atom=  23, XYZ(ang) Fxyz(a.u.)=  -2.4667   14.2448   10.5359     0.0000    0.0000    0.0000
     atom=  24, XYZ(ang) Fxyz(a.u.)=  -3.7009   16.3821   10.5381     0.0000    0.0000    0.0000
     atom=  25, XYZ(ang) Fxyz(a.u.)=   7.4009    1.4281   10.5394     0.0000   -0.0000    0.0000
     atom=  26, XYZ(ang) Fxyz(a.u.)=   6.1615    3.5649   10.5406    -0.0000   -0.0000    0.0000
     atom=  27, XYZ(ang) Fxyz(a.u.)=   4.9343    5.6782   10.5400     0.0000    0.0000    0.0000
     atom=  28, XYZ(ang) Fxyz(a.u.)=   2.4510    9.9815   10.5356    -0.0000   -0.0000    0.0000
     atom=  29, XYZ(ang) Fxyz(a.u.)=   1.2341   12.1010   10.5366     0.0000    0.0000   -0.0001
     atom=  30, XYZ(ang) Fxyz(a.u.)=   0.0030   14.2426   10.5374     0.0000    0.0000   -0.0000
     atom=  31, XYZ(ang) Fxyz(a.u.)=  -1.2331   16.3820   10.5381     0.0000    0.0000   -0.0000
     atom=  32, XYZ(ang) Fxyz(a.u.)=   9.8680    1.4257   10.5382    -0.0000   -0.0000    0.0000
     atom=  33, XYZ(ang) Fxyz(a.u.)=   8.6330    3.5646   10.5379    -0.0000   -0.0000    0.0000
     atom=  34, XYZ(ang) Fxyz(a.u.)=   7.3937    5.7154   10.5378     0.0000   -0.0000    0.0000
     atom=  35, XYZ(ang) Fxyz(a.u.)=   3.7124   12.0930   10.5377     0.0000   -0.0000   -0.0001
     atom=  36, XYZ(ang) Fxyz(a.u.)=   2.4694   14.2416   10.5392     0.0000    0.0000   -0.0000
     atom=  37, XYZ(ang) Fxyz(a.u.)=   1.2342   16.3804   10.5388    -0.0000    0.0000    0.0000
     atom=  38, XYZ(ang) Fxyz(a.u.)=  12.3362    1.4246   10.5374    -0.0000   -0.0000    0.0000
     atom=  39, XYZ(ang) Fxyz(a.u.)=  11.1026    3.5626   10.5361    -0.0000   -0.0000    0.0001
     atom=  40, XYZ(ang) Fxyz(a.u.)=   9.8664    5.6995   10.5353     0.0000   -0.0000    0.0000
     atom=  41, XYZ(ang) Fxyz(a.u.)=   8.6158    7.8329   10.5356     0.0000   -0.0000    0.0000
     atom=  42, XYZ(ang) Fxyz(a.u.)=   7.4189    9.9818   10.5347    -0.0000   -0.0000    0.0000
     atom=  43, XYZ(ang) Fxyz(a.u.)=   6.1575   12.0929   10.5388     0.0000   -0.0000   -0.0000
     atom=  44, XYZ(ang) Fxyz(a.u.)=   4.9350   14.2425   10.5408    -0.0000    0.0000   -0.0000
     atom=  45, XYZ(ang) Fxyz(a.u.)=   3.7022   16.3813   10.5397    -0.0000    0.0000   -0.0000
     atom=  46, XYZ(ang) Fxyz(a.u.)=  14.8038    1.4245   10.5372     0.0000    0.0000   -0.0000
     atom=  47, XYZ(ang) Fxyz(a.u.)=  13.5698    3.5615   10.5342    -0.0000    0.0000    0.0000
     atom=  48, XYZ(ang) Fxyz(a.u.)=  12.3352    5.6974   10.5332     0.0000    0.0000   -0.0000
     atom=  49, XYZ(ang) Fxyz(a.u.)=  11.0986    7.8350   10.5334     0.0000   -0.0000   -0.0001
     atom=  50, XYZ(ang) Fxyz(a.u.)=   9.8627    9.9751   10.5349     0.0000   -0.0000   -0.0001
     atom=  51, XYZ(ang) Fxyz(a.u.)=   8.6358   12.1011   10.5386     0.0000   -0.0000   -0.0000
     atom=  52, XYZ(ang) Fxyz(a.u.)=   7.4005   14.2416   10.5415     0.0000   -0.0000   -0.0000
     atom=  53, XYZ(ang) Fxyz(a.u.)=   6.1674   16.3813   10.5408     0.0000    0.0000   -0.0000
     atom=  54, XYZ(ang) Fxyz(a.u.)=  17.2713    1.4246   10.5391     0.0000   -0.0000   -0.0000
     atom=  55, XYZ(ang) Fxyz(a.u.)=  16.0375    3.5615   10.5343     0.0000   -0.0000   -0.0000
     atom=  56, XYZ(ang) Fxyz(a.u.)=  14.8037    5.6984   10.5323     0.0000    0.0000    0.0000
     atom=  57, XYZ(ang) Fxyz(a.u.)=  13.5686    7.8351   10.5323     0.0000   -0.0000   -0.0000
     atom=  58, XYZ(ang) Fxyz(a.u.)=  12.3330    9.9704   10.5328     0.0000   -0.0000   -0.0001
     atom=  59, XYZ(ang) Fxyz(a.u.)=  11.1038   12.1086   10.5355     0.0000   -0.0000   -0.0000
     atom=  60, XYZ(ang) Fxyz(a.u.)=   9.8668   14.2425   10.5403     0.0000   -0.0000    0.0001
     atom=  61, XYZ(ang) Fxyz(a.u.)=   8.6353   16.3803   10.5421     0.0000   -0.0000   -0.0000
     atom=  62, XYZ(ang) Fxyz(a.u.)=   1.2341    0.7140   10.5420    -0.0000    0.0000   -0.0000
     atom=  63, XYZ(ang) Fxyz(a.u.)=   0.0026    2.8518   10.5403    -0.0000    0.0000    0.0000
     atom=  64, XYZ(ang) Fxyz(a.u.)=  -1.2344    4.9857   10.5355    -0.0000    0.0000   -0.0000
     atom=  65, XYZ(ang) Fxyz(a.u.)=  -2.4636    7.1239   10.5327    -0.0000    0.0000   -0.0001
     atom=  66, XYZ(ang) Fxyz(a.u.)=  -3.6992    9.2591   10.5323    -0.0000    0.0000   -0.0000
     atom=  67, XYZ(ang) Fxyz(a.u.)=  -4.9343   11.3959   10.5323    -0.0000   -0.0000    0.0000
     atom=  68, XYZ(ang) Fxyz(a.u.)=  -6.1681   13.5328   10.5344    -0.0000    0.0000   -0.0000
     atom=  69, XYZ(ang) Fxyz(a.u.)=  -7.4019   15.6697   10.5391    -0.0000    0.0000   -0.0001
     atom=  70, XYZ(ang) Fxyz(a.u.)=   3.7020    0.7131   10.5407    -0.0000   -0.0000   -0.0000
     atom=  71, XYZ(ang) Fxyz(a.u.)=   2.4689    2.8528   10.5419    -0.0000    0.0000   -0.0000
     atom=  72, XYZ(ang) Fxyz(a.u.)=   1.2336    4.9933   10.5396    -0.0000    0.0000   -0.0000
     atom=  73, XYZ(ang) Fxyz(a.u.)=   0.0068    7.1192   10.5356    -0.0000    0.0000   -0.0001
     atom=  74, XYZ(ang) Fxyz(a.u.)=  -1.2292    9.2593   10.5335    -0.0000    0.0000   -0.0001
     atom=  75, XYZ(ang) Fxyz(a.u.)=  -2.4658   11.3968   10.5332    -0.0000   -0.0000   -0.0000
     atom=  76, XYZ(ang) Fxyz(a.u.)=  -3.7004   13.5327   10.5342     0.0000   -0.0000    0.0000
     atom=  77, XYZ(ang) Fxyz(a.u.)=  -4.9345   15.6697   10.5371    -0.0000    0.0000   -0.0000
     atom=  78, XYZ(ang) Fxyz(a.u.)=   6.1671    0.7130   10.5396     0.0000   -0.0000   -0.0000
     atom=  79, XYZ(ang) Fxyz(a.u.)=   4.9344    2.8519   10.5415    -0.0000   -0.0000   -0.0000
     atom=  80, XYZ(ang) Fxyz(a.u.)=   3.7120    5.0015   10.5415     0.0000    0.0000   -0.0000
     atom=  81, XYZ(ang) Fxyz(a.u.)=   2.4509    7.1128   10.5389     0.0000    0.0000    0.0000
     atom=  82, XYZ(ang) Fxyz(a.u.)=   1.2535    9.2614   10.5365    -0.0000    0.0000    0.0000
     atom=  83, XYZ(ang) Fxyz(a.u.)=   0.0029   11.3948   10.5353    -0.0000    0.0000    0.0000
     atom=  84, XYZ(ang) Fxyz(a.u.)=  -1.2332   13.5316   10.5361     0.0000    0.0000    0.0001
     atom=  85, XYZ(ang) Fxyz(a.u.)=  -2.4669   15.6697   10.5374     0.0000    0.0000    0.0000
     atom=  86, XYZ(ang) Fxyz(a.u.)=   8.6352    0.7139   10.5387     0.0000   -0.0000    0.0000
     atom=  87, XYZ(ang) Fxyz(a.u.)=   7.3999    2.8527   10.5394    -0.0000   -0.0000   -0.0000
     atom=  88, XYZ(ang) Fxyz(a.u.)=   6.1569    5.0014   10.5397    -0.0000    0.0000   -0.0001
     atom=  89, XYZ(ang) Fxyz(a.u.)=   2.4757   11.3788   10.5369    -0.0000    0.0000    0.0000
     atom=  90, XYZ(ang) Fxyz(a.u.)=   1.2364   13.5297   10.5378     0.0000    0.0000    0.0000
     atom=  91, XYZ(ang) Fxyz(a.u.)=   0.0013   15.6686   10.5382     0.0000    0.0000    0.0000
     atom=  92, XYZ(ang) Fxyz(a.u.)=  11.1024    0.7123   10.5381    -0.0000   -0.0000   -0.0000
     atom=  93, XYZ(ang) Fxyz(a.u.)=   9.8664    2.8517   10.5374    -0.0000   -0.0000   -0.0000
     atom=  94, XYZ(ang) Fxyz(a.u.)=   8.6353    4.9932   10.5369    -0.0000   -0.0000   -0.0001
     atom=  95, XYZ(ang) Fxyz(a.u.)=   7.4183    7.1127   10.5357     0.0000   -0.0000    0.0000
     atom=  96, XYZ(ang) Fxyz(a.u.)=   4.9351   11.4165   10.5355    -0.0000   -0.0000   -0.0000
     atom=  97, XYZ(ang) Fxyz(a.u.)=   3.7078   13.5294   10.5398     0.0000    0.0000    0.0001
     atom=  98, XYZ(ang) Fxyz(a.u.)=   2.4684   15.6662   10.5395    -0.0000    0.0000    0.0000
     atom=  99, XYZ(ang) Fxyz(a.u.)=  13.5703    0.7122   10.5381    -0.0000   -0.0000    0.0000
     atom= 100, XYZ(ang) Fxyz(a.u.)=  12.3361    2.8495   10.5359    -0.0000   -0.0000   -0.0000
     atom= 101, XYZ(ang) Fxyz(a.u.)=  11.1034    4.9855   10.5345    -0.0000   -0.0000   -0.0000
     atom= 102, XYZ(ang) Fxyz(a.u.)=   9.8625    7.1190   10.5348     0.0000   -0.0000   -0.0000
     atom= 103, XYZ(ang) Fxyz(a.u.)=   8.6162    9.2612   10.5353     0.0000   -0.0000   -0.0000
     atom= 104, XYZ(ang) Fxyz(a.u.)=   7.3943   11.3788   10.5379    -0.0000   -0.0000   -0.0000
     atom= 105, XYZ(ang) Fxyz(a.u.)=   6.1624   13.5294   10.5409     0.0000   -0.0000    0.0000
     atom= 106, XYZ(ang) Fxyz(a.u.)=   4.9350   15.6708   10.5409     0.0000    0.0000    0.0001
     atom= 107, XYZ(ang) Fxyz(a.u.)=  16.0376    0.7123   10.5390     0.0000   -0.0000   -0.0000
     atom= 108, XYZ(ang) Fxyz(a.u.)=  14.8038    2.8493   10.5349     0.0000   -0.0000   -0.0001
     atom= 109, XYZ(ang) Fxyz(a.u.)=  13.5697    4.9861   10.5328    -0.0000    0.0000   -0.0001
     atom= 110, XYZ(ang) Fxyz(a.u.)=  12.3330    7.1236   10.5329    -0.0000   -0.0000    0.0000
     atom= 111, XYZ(ang) Fxyz(a.u.)=  11.0988    9.2590   10.5337     0.0000   -0.0000    0.0000
     atom= 112, XYZ(ang) Fxyz(a.u.)=   9.8670   11.3946   10.5363     0.0000   -0.0000    0.0000
     atom= 113, XYZ(ang) Fxyz(a.u.)=   8.6338   13.5296   10.5404     0.0000    0.0000   -0.0000
     atom= 114, XYZ(ang) Fxyz(a.u.)=   7.4014   15.6662   10.5419     0.0000    0.0000    0.0000
     atom= 115, XYZ(ang) Fxyz(a.u.)=  18.5054    0.7122   10.5414     0.0000   -0.0000    0.0001
     atom= 116, XYZ(ang) Fxyz(a.u.)=  17.2714    2.8495   10.5369     0.0000   -0.0000    0.0000
     atom= 117, XYZ(ang) Fxyz(a.u.)=  16.0378    4.9862   10.5326     0.0000    0.0000   -0.0001
     atom= 118, XYZ(ang) Fxyz(a.u.)=  14.8038    7.1232   10.5321    -0.0000   -0.0000   -0.0000
     atom= 119, XYZ(ang) Fxyz(a.u.)=  13.5687    9.2589   10.5323     0.0000   -0.0000    0.0001
     atom= 120, XYZ(ang) Fxyz(a.u.)=  12.3355   11.3966   10.5334     0.0000   -0.0000    0.0000
     atom= 121, XYZ(ang) Fxyz(a.u.)=  11.1031   13.5315   10.5374     0.0000    0.0000   -0.0001
     atom= 122, XYZ(ang) Fxyz(a.u.)=   9.8683   15.6685   10.5416     0.0000    0.0000   -0.0000
     atom= 123, XYZ(ang) Fxyz(a.u.)=   4.9340    8.5460   13.8432    -0.0000   -0.0000    0.0000
     atom= 124, XYZ(ang) Fxyz(a.u.)=   4.9617    8.5947   12.6594     0.0000   -0.0000    0.0000
     atom= 125, XYZ(ang) Fxyz(a.u.)=   4.9066    8.4975   15.0349     0.0000    0.0001    0.0001

outputting data on grids to files...


***********************************************************
***********************************************************
               Computational Time (second)                 
***********************************************************
***********************************************************

                               Min_ID   Min_Time       Max_ID   Max_Time
   Total Computational Time =    58    15277.216          0    15277.348
   readfile                 =    59        2.350          0        2.367
   truncation               =     0       33.389         48       36.492
   MD_pac                   =     0        1.977         62        2.163
   OutData                  =    22        1.221          0        1.349
   DFT                      =    48    15234.897          0    15238.015

*** In DFT ***

   Set_OLP_Kin              =    32       26.609         58       52.132
   Set_Nonlocal             =    58       72.933         32       98.475
   Set_ProExpn_VNA          =    16      167.503         50      175.662
   Set_Hamiltonian          =    30      782.715          6      782.722
   Poisson                  =    22       12.368          2       12.371
   Diagonalization          =     0    13475.745          4    13475.768
   Mixing_DM                =    20      113.122         46      113.124
   Force                    =    22      139.543         32      139.543
   Total_Energy             =    16       40.985          0       41.000
   Set_Aden_Grid            =    50        2.945         16       11.121
   Set_Orbitals_Grid        =     0       13.168         30       25.754
   Set_Density_Grid         =    35      305.942         59      315.885
   RestartFileDFT           =     2        3.154          0       14.746
   Mulliken_Charge          =    58        0.677         14        0.678
   FFT(2D)_Density          =    34       12.998         17       13.012
   Others                   =    59        8.417         32       19.337

The calculation was normally finished.
