
The number of threads in each node for OpenMP parallelization is 1.


*******************************************************
*******************************************************
 Welcome to OpenMX   Ver. 3.9.9                           
 Copyright (C), 2002-2019, T. Ozaki                    
 OpenMX comes with ABSOLUTELY NO WARRANTY.             
 This is free software, and you are welcome to         
 redistribute it under the constitution of the GNU-GPL.
*******************************************************
*******************************************************

Automatic determination of Kerker_factor:   3.992945286074


<Input_std>  Your input file was normally read.
<Input_std>  The system includes 2 species and 119 atoms.

*******************************************************
                     PAO and VPS                       
*******************************************************

<SetPara_DFT>  PAOs of species C were normally found.
<SetPara_DFT>  PAOs of species O were normally found.
<SetPara_DFT>  VPSs of species C were normally found.
               C_PBE19.vps is j-dependent.
               In case of scf.SpinOrbit.Coupling=off,
               j-dependent pseudo potentials are averaged by j-degeneracy,
               which corresponds to a scalar relativistic treatment.
<SetPara_DFT>  VPSs of species O were normally found.
               O_PBE19.vps is j-dependent.
               In case of scf.SpinOrbit.Coupling=off,
               j-dependent pseudo potentials are averaged by j-degeneracy,
               which corresponds to a scalar relativistic treatment.

*******************************************************
     Fourier transform of PAO and projectors of VNL    
*******************************************************

<FT_PAO>          Fourier transform of pseudo atomic orbitals
<FT_NLP>          Fourier transform of non-local projectors
<FT_ProExpn_VNA>  Fourier transform of VNA separable projectors
<FT_VNA>          Fourier transform of VNA potentials
<FT_ProductPAO>   Fourier transform of product of PAOs

*******************************************************
  Allocation of atoms to processors at MD_iter=    1     
*******************************************************

 proc =   0  # of atoms=   1  estimated weight=         1.00000
 proc =   1  # of atoms=   2  estimated weight=         2.00000
 proc =   2  # of atoms=   2  estimated weight=         2.00000
 proc =   3  # of atoms=   2  estimated weight=         2.00000
 proc =   4  # of atoms=   1  estimated weight=         1.00000
 proc =   5  # of atoms=   2  estimated weight=         2.00000
 proc =   6  # of atoms=   2  estimated weight=         2.00000
 proc =   7  # of atoms=   2  estimated weight=         2.00000
 proc =   8  # of atoms=   1  estimated weight=         1.00000
 proc =   9  # of atoms=   2  estimated weight=         2.00000
 proc =  10  # of atoms=   2  estimated weight=         2.00000
 proc =  11  # of atoms=   2  estimated weight=         2.00000
 proc =  12  # of atoms=   2  estimated weight=         2.00000
 proc =  13  # of atoms=   2  estimated weight=         2.00000
 proc =  14  # of atoms=   2  estimated weight=         2.00000
 proc =  15  # of atoms=   2  estimated weight=         2.00000
 proc =  16  # of atoms=   1  estimated weight=         1.00000
 proc =  17  # of atoms=   2  estimated weight=         2.00000
 proc =  18  # of atoms=   2  estimated weight=         2.00000
 proc =  19  # of atoms=   2  estimated weight=         2.00000
 proc =  20  # of atoms=   2  estimated weight=         2.00000
 proc =  21  # of atoms=   2  estimated weight=         2.00000
 proc =  22  # of atoms=   2  estimated weight=         2.00000
 proc =  23  # of atoms=   2  estimated weight=         2.00000
 proc =  24  # of atoms=   1  estimated weight=         1.00000
 proc =  25  # of atoms=   2  estimated weight=         2.00000
 proc =  26  # of atoms=   2  estimated weight=         2.00000
 proc =  27  # of atoms=   2  estimated weight=         2.00000
 proc =  28  # of atoms=   2  estimated weight=         2.00000
 proc =  29  # of atoms=   2  estimated weight=         2.00000
 proc =  30  # of atoms=   2  estimated weight=         2.00000
 proc =  31  # of atoms=   2  estimated weight=         2.00000
 proc =  32  # of atoms=   1  estimated weight=         1.00000
 proc =  33  # of atoms=   2  estimated weight=         2.00000
 proc =  34  # of atoms=   2  estimated weight=         2.00000
 proc =  35  # of atoms=   2  estimated weight=         2.00000
 proc =  36  # of atoms=   2  estimated weight=         2.00000
 proc =  37  # of atoms=   2  estimated weight=         2.00000
 proc =  38  # of atoms=   2  estimated weight=         2.00000
 proc =  39  # of atoms=   2  estimated weight=         2.00000
 proc =  40  # of atoms=   1  estimated weight=         1.00000
 proc =  41  # of atoms=   2  estimated weight=         2.00000
 proc =  42  # of atoms=   2  estimated weight=         2.00000
 proc =  43  # of atoms=   2  estimated weight=         2.00000
 proc =  44  # of atoms=   2  estimated weight=         2.00000
 proc =  45  # of atoms=   2  estimated weight=         2.00000
 proc =  46  # of atoms=   2  estimated weight=         2.00000
 proc =  47  # of atoms=   2  estimated weight=         2.00000
 proc =  48  # of atoms=   1  estimated weight=         1.00000
 proc =  49  # of atoms=   2  estimated weight=         2.00000
 proc =  50  # of atoms=   2  estimated weight=         2.00000
 proc =  51  # of atoms=   2  estimated weight=         2.00000
 proc =  52  # of atoms=   2  estimated weight=         2.00000
 proc =  53  # of atoms=   2  estimated weight=         2.00000
 proc =  54  # of atoms=   2  estimated weight=         2.00000
 proc =  55  # of atoms=   2  estimated weight=         2.00000
 proc =  56  # of atoms=   1  estimated weight=         1.00000
 proc =  57  # of atoms=   2  estimated weight=         2.00000
 proc =  58  # of atoms=   2  estimated weight=         2.00000
 proc =  59  # of atoms=   2  estimated weight=         2.00000
 proc =  60  # of atoms=   2  estimated weight=         2.00000
 proc =  61  # of atoms=   2  estimated weight=         2.00000
 proc =  62  # of atoms=   2  estimated weight=         2.00000
 proc =  63  # of atoms=   2  estimated weight=         2.00000




*******************************************************
        Analysis of neighbors and setting of grids        
*******************************************************

TFNAN=    4974   Average FNAN=  41.79832
TSNAN=       0   Average SNAN=   0.00000
<truncation> CpyCell= 1 ct_AN=   1 FNAN SNAN  44   0
<truncation> CpyCell= 1 ct_AN=   2 FNAN SNAN  44   0
<truncation> CpyCell= 1 ct_AN=   3 FNAN SNAN  44   0
<truncation> CpyCell= 1 ct_AN=   4 FNAN SNAN  44   0
<truncation> CpyCell= 1 ct_AN=   5 FNAN SNAN  45   0
<truncation> CpyCell= 1 ct_AN=   6 FNAN SNAN  45   0
<truncation> CpyCell= 1 ct_AN=   7 FNAN SNAN  45   0
<truncation> CpyCell= 1 ct_AN=   8 FNAN SNAN  45   0
<truncation> CpyCell= 1 ct_AN=   9 FNAN SNAN  42   0
<truncation> CpyCell= 1 ct_AN=  10 FNAN SNAN  40   0
<truncation> CpyCell= 1 ct_AN=  11 FNAN SNAN  40   0
<truncation> CpyCell= 1 ct_AN=  12 FNAN SNAN  41   0
<truncation> CpyCell= 1 ct_AN=  13 FNAN SNAN  42   0
<truncation> CpyCell= 1 ct_AN=  14 FNAN SNAN  45   0
<truncation> CpyCell= 1 ct_AN=  15 FNAN SNAN  45   0
<truncation> CpyCell= 1 ct_AN=  16 FNAN SNAN  45   0
<truncation> CpyCell= 1 ct_AN=  17 FNAN SNAN  41   0
<truncation> CpyCell= 1 ct_AN=  18 FNAN SNAN  40   0
<truncation> CpyCell= 1 ct_AN=  19 FNAN SNAN  37   0
<truncation> CpyCell= 1 ct_AN=  20 FNAN SNAN  37   0
     ..........
     ......

TFNAN=    4974   Average FNAN=  41.79832
TSNAN=       0   Average SNAN=   0.00000
<truncation> CpyCell= 2 ct_AN=   1 FNAN SNAN  44   0
<truncation> CpyCell= 2 ct_AN=   2 FNAN SNAN  44   0
<truncation> CpyCell= 2 ct_AN=   3 FNAN SNAN  44   0
<truncation> CpyCell= 2 ct_AN=   4 FNAN SNAN  44   0
<truncation> CpyCell= 2 ct_AN=   5 FNAN SNAN  45   0
<truncation> CpyCell= 2 ct_AN=   6 FNAN SNAN  45   0
<truncation> CpyCell= 2 ct_AN=   7 FNAN SNAN  45   0
<truncation> CpyCell= 2 ct_AN=   8 FNAN SNAN  45   0
<truncation> CpyCell= 2 ct_AN=   9 FNAN SNAN  42   0
<truncation> CpyCell= 2 ct_AN=  10 FNAN SNAN  40   0
<truncation> CpyCell= 2 ct_AN=  11 FNAN SNAN  40   0
<truncation> CpyCell= 2 ct_AN=  12 FNAN SNAN  41   0
<truncation> CpyCell= 2 ct_AN=  13 FNAN SNAN  42   0
<truncation> CpyCell= 2 ct_AN=  14 FNAN SNAN  45   0
<truncation> CpyCell= 2 ct_AN=  15 FNAN SNAN  45   0
<truncation> CpyCell= 2 ct_AN=  16 FNAN SNAN  45   0
<truncation> CpyCell= 2 ct_AN=  17 FNAN SNAN  41   0
<truncation> CpyCell= 2 ct_AN=  18 FNAN SNAN  40   0
<truncation> CpyCell= 2 ct_AN=  19 FNAN SNAN  37   0
<truncation> CpyCell= 2 ct_AN=  20 FNAN SNAN  37   0
     ..........
     ......

TFNAN=    4974   Average FNAN=  41.79832
TSNAN=       0   Average SNAN=   0.00000
<truncation> CpyCell= 2 ct_AN=   1 FNAN SNAN  44   0
<truncation> CpyCell= 2 ct_AN=   2 FNAN SNAN  44   0
<truncation> CpyCell= 2 ct_AN=   3 FNAN SNAN  44   0
<truncation> CpyCell= 2 ct_AN=   4 FNAN SNAN  44   0
<truncation> CpyCell= 2 ct_AN=   5 FNAN SNAN  45   0
<truncation> CpyCell= 2 ct_AN=   6 FNAN SNAN  45   0
<truncation> CpyCell= 2 ct_AN=   7 FNAN SNAN  45   0
<truncation> CpyCell= 2 ct_AN=   8 FNAN SNAN  45   0
<truncation> CpyCell= 2 ct_AN=   9 FNAN SNAN  42   0
<truncation> CpyCell= 2 ct_AN=  10 FNAN SNAN  40   0
<truncation> CpyCell= 2 ct_AN=  11 FNAN SNAN  40   0
<truncation> CpyCell= 2 ct_AN=  12 FNAN SNAN  41   0
<truncation> CpyCell= 2 ct_AN=  13 FNAN SNAN  42   0
<truncation> CpyCell= 2 ct_AN=  14 FNAN SNAN  45   0
<truncation> CpyCell= 2 ct_AN=  15 FNAN SNAN  45   0
<truncation> CpyCell= 2 ct_AN=  16 FNAN SNAN  45   0
<truncation> CpyCell= 2 ct_AN=  17 FNAN SNAN  41   0
<truncation> CpyCell= 2 ct_AN=  18 FNAN SNAN  40   0
<truncation> CpyCell= 2 ct_AN=  19 FNAN SNAN  37   0
<truncation> CpyCell= 2 ct_AN=  20 FNAN SNAN  37   0
     ..........
     ......

<Check_System> The system is slab.
lattice vectors (bohr)
A  = 37.299978480367,  0.000000000000,  0.000000000000
B  = -18.649989240184, 32.302728872609,  0.000000000000
C  =  0.000000000000,  0.000000000000, 39.684245760157
reciprocal lattice vectors (bohr^-1)
RA =  0.168450105420,  0.097254713866, -0.000000000000
RB =  0.000000000000,  0.194509427732,  0.000000000000
RC =  0.000000000000, -0.000000000000,  0.158329462658
Grid_Origin  0.051805525667  0.089729829420  0.234781989998
Cell_Volume =  47815.194201431834 (Bohr^3)
GridVol     =      0.006832303698 (Bohr^3)
Grid_Origin  0.051805525667  0.089729829420  0.234781989998
Cell_Volume =  47815.194201431834 (Bohr^3)
GridVol     =      0.006832303698 (Bohr^3)
<UCell_Box> Info. of cutoff energy and num. of grids
lattice vectors (bohr)
A  = 37.299978480367,  0.000000000000,  0.000000000000
B  = -18.649989240184, 32.302728872609,  0.000000000000
C  =  0.000000000000,  0.000000000000, 39.684245760157
reciprocal lattice vectors (bohr^-1)
RA =  0.168450105420,  0.097254713866, -0.000000000000
RB =  0.000000000000,  0.194509427732,  0.000000000000
RC =  0.000000000000, -0.000000000000,  0.158329462658
Required cutoff energy (Ryd) for 3D-grids = 300.0000
    Used cutoff energy (Ryd) for 3D-grids = 306.4547, 306.4547, 292.3957
Num. of grids of a-, b-, and c-axes = 180, 180, 216
Grid_Origin  0.051805525667  0.089729829420  0.234781989998
Cell_Volume =  47815.194201431834 (Bohr^3)
GridVol     =      0.006832303698 (Bohr^3)
Cell vectors (bohr) of the grid cell (gtv)
  gtv_a =  0.207222102669,  0.000000000000,  0.000000000000
  gtv_b = -0.103611051334,  0.179459604848,  0.000000000000
  gtv_c =  0.000000000000,  0.000000000000,  0.183723360001
  |gtv_a| =  0.207222102669
  |gtv_b| =  0.207222102419
  |gtv_c| =  0.183723360001
Num. of grids overlapping with atom    1 = 132396
Num. of grids overlapping with atom    2 = 132422
Num. of grids overlapping with atom    3 = 132405
Num. of grids overlapping with atom    4 = 132426
Num. of grids overlapping with atom    5 = 132393
Num. of grids overlapping with atom    6 = 132442
Num. of grids overlapping with atom    7 = 132398
Num. of grids overlapping with atom    8 = 132442
Num. of grids overlapping with atom    9 = 132436
Num. of grids overlapping with atom   10 = 132428
Num. of grids overlapping with atom   11 = 132476
Num. of grids overlapping with atom   12 = 132422
Num. of grids overlapping with atom   13 = 132406
Num. of grids overlapping with atom   14 = 132405
Num. of grids overlapping with atom   15 = 132401
Num. of grids overlapping with atom   16 = 132401
Num. of grids overlapping with atom   17 = 132471
Num. of grids overlapping with atom   18 = 132397
Num. of grids overlapping with atom   19 = 132391
Num. of grids overlapping with atom   20 = 132420
     ..........
     ......


*******************************************************
             SCF calculation at MD = 1                
*******************************************************

<MD= 1>  Calculation of the overlap matrix
<MD= 1>  Calculation of the nonlocal matrix
<MD= 1>  Calculation of the VNA projector matrix

******************* MD= 1  SCF= 1 *******************
<Band>  Solving the eigenvalue problem...
 KGrids1:  -0.43750  -0.31250  -0.18750  -0.06250   0.06250   0.18750   0.31250   0.43750 
 KGrids2:  -0.43750  -0.31250  -0.18750  -0.06250   0.06250   0.18750   0.31250   0.43750 
 KGrids3:   0.00000 
<Band_DFT>  Eigen, time=17.863102
<Band_DFT>  DM, time=0.000005
    1    C  MulP   1.9912  1.9912 sum   3.9824
    2    C  MulP   1.9938  1.9938 sum   3.9876
    3    C  MulP   1.9939  1.9939 sum   3.9878
    4    C  MulP   1.9910  1.9910 sum   3.9821
    5    C  MulP   1.9973  1.9973 sum   3.9947
    6    C  MulP   1.9901  1.9901 sum   3.9803
    7    C  MulP   1.9903  1.9903 sum   3.9807
    8    C  MulP   1.9972  1.9972 sum   3.9943
    9    C  MulP   1.9895  1.9895 sum   3.9791
   10    C  MulP   1.9927  1.9927 sum   3.9854
   11    C  MulP   1.9796  1.9796 sum   3.9593
   12    C  MulP   1.9927  1.9927 sum   3.9854
   13    C  MulP   1.9896  1.9896 sum   3.9793
   14    C  MulP   1.9902  1.9902 sum   3.9805
   15    C  MulP   1.9982  1.9982 sum   3.9963
   16    C  MulP   1.9903  1.9903 sum   3.9806
   17    C  MulP   1.9948  1.9948 sum   3.9896
   18    C  MulP   1.9901  1.9901 sum   3.9802
   19    C  MulP   2.0722  2.0722 sum   4.1445
   20    C  MulP   2.0716  2.0716 sum   4.1431
     ..........
     ......

 Sum of MulP: up   =   240.00000 down          =   240.00000
              total=   480.00000 ideal(neutral)=   480.00000
<DFT>  Total Spin Moment (muB) =  0.000000000000
<DFT>  Mixing_weight= 0.050000000000
<DFT>  Uele   = -194.611219436638  dUele     =   1.000000000000
<DFT>  NormRD =    1.000000000000  Criterion =   0.000000010000

******************* MD= 1  SCF= 2 *******************
<Poisson>  Poisson's equation using FFT...
<Set_Hamiltonian>  Hamiltonian matrix for VNA+dVH+Vxc...
<Band>  Solving the eigenvalue problem...
 KGrids1:  -0.43750  -0.31250  -0.18750  -0.06250   0.06250   0.18750   0.31250   0.43750 
 KGrids2:  -0.43750  -0.31250  -0.18750  -0.06250   0.06250   0.18750   0.31250   0.43750 
 KGrids3:   0.00000 
<Band_DFT>  Eigen, time=10.402259
<Band_DFT>  DM, time=0.000001
    1    C  MulP   1.9912  1.9912 sum   3.9824
    2    C  MulP   1.9938  1.9938 sum   3.9876
    3    C  MulP   1.9939  1.9939 sum   3.9878
    4    C  MulP   1.9910  1.9910 sum   3.9821
    5    C  MulP   1.9973  1.9973 sum   3.9947
    6    C  MulP   1.9901  1.9901 sum   3.9803
    7    C  MulP   1.9903  1.9903 sum   3.9807
    8    C  MulP   1.9972  1.9972 sum   3.9943
    9    C  MulP   1.9895  1.9895 sum   3.9791
   10    C  MulP   1.9927  1.9927 sum   3.9854
   11    C  MulP   1.9796  1.9796 sum   3.9593
   12    C  MulP   1.9927  1.9927 sum   3.9854
   13    C  MulP   1.9896  1.9896 sum   3.9793
   14    C  MulP   1.9902  1.9902 sum   3.9805
   15    C  MulP   1.9982  1.9982 sum   3.9963
   16    C  MulP   1.9903  1.9903 sum   3.9806
   17    C  MulP   1.9948  1.9948 sum   3.9896
   18    C  MulP   1.9901  1.9901 sum   3.9802
   19    C  MulP   2.0722  2.0722 sum   4.1445
   20    C  MulP   2.0716  2.0716 sum   4.1431
     ..........
     ......

 Sum of MulP: up   =   240.00000 down          =   240.00000
              total=   480.00000 ideal(neutral)=   480.00000
<DFT>  Total Spin Moment (muB) =  0.000000000000
<DFT>  Mixing_weight= 0.010000000000
<DFT>  Uele   = -194.611219436638  dUele     =   0.000000000000
<DFT>  NormRD =   10.081768322248  Criterion =   0.000000010000

******************* MD= 1  SCF= 3 *******************
<Poisson>  Poisson's equation using FFT...
<Set_Hamiltonian>  Hamiltonian matrix for VNA+dVH+Vxc...
<Band>  Solving the eigenvalue problem...
 KGrids1:  -0.43750  -0.31250  -0.18750  -0.06250   0.06250   0.18750   0.31250   0.43750 
 KGrids2:  -0.43750  -0.31250  -0.18750  -0.06250   0.06250   0.18750   0.31250   0.43750 
 KGrids3:   0.00000 
<Band_DFT>  Eigen, time=10.413768
<Band_DFT>  DM, time=0.000000
    1    C  MulP   1.9914  1.9914 sum   3.9828
    2    C  MulP   1.9939  1.9939 sum   3.9879
    3    C  MulP   1.9940  1.9940 sum   3.9881
    4    C  MulP   1.9913  1.9913 sum   3.9825
    5    C  MulP   1.9974  1.9974 sum   3.9947
    6    C  MulP   1.9904  1.9904 sum   3.9808
    7    C  MulP   1.9906  1.9906 sum   3.9811
    8    C  MulP   1.9972  1.9972 sum   3.9944
    9    C  MulP   1.9898  1.9898 sum   3.9796
   10    C  MulP   1.9928  1.9928 sum   3.9856
   11    C  MulP   1.9796  1.9796 sum   3.9592
   12    C  MulP   1.9928  1.9928 sum   3.9856
   13    C  MulP   1.9899  1.9899 sum   3.9798
   14    C  MulP   1.9905  1.9905 sum   3.9810
   15    C  MulP   1.9982  1.9982 sum   3.9963
   16    C  MulP   1.9906  1.9906 sum   3.9811
   17    C  MulP   1.9949  1.9949 sum   3.9899
   18    C  MulP   1.9904  1.9904 sum   3.9808
   19    C  MulP   2.0710  2.0710 sum   4.1420
   20    C  MulP   2.0702  2.0702 sum   4.1405
     ..........
     ......

 Sum of MulP: up   =   240.00000 down          =   240.00000
              total=   480.00000 ideal(neutral)=   480.00000
<DFT>  Total Spin Moment (muB) =  0.000000000000
<DFT>  Mixing_weight= 0.300000000000
<DFT>  Uele   = -195.010393843130  dUele     =   0.399174406492
<DFT>  NormRD =    9.956959484259  Criterion =   0.000000010000

******************* MD= 1  SCF= 4 *******************
<Poisson>  Poisson's equation using FFT...
<Set_Hamiltonian>  Hamiltonian matrix for VNA+dVH+Vxc...
<Band>  Solving the eigenvalue problem...
 KGrids1:  -0.43750  -0.31250  -0.18750  -0.06250   0.06250   0.18750   0.31250   0.43750 
 KGrids2:  -0.43750  -0.31250  -0.18750  -0.06250   0.06250   0.18750   0.31250   0.43750 
 KGrids3:   0.00000 
<Band_DFT>  Eigen, time=10.403562
<Band_DFT>  DM, time=0.000000
    1    C  MulP   1.9990  1.9990 sum   3.9981
    2    C  MulP   1.9979  1.9979 sum   3.9959
    3    C  MulP   1.9982  1.9982 sum   3.9965
    4    C  MulP   1.9988  1.9988 sum   3.9976
    5    C  MulP   1.9983  1.9983 sum   3.9966
    6    C  MulP   1.9985  1.9985 sum   3.9970
    7    C  MulP   1.9987  1.9987 sum   3.9975
    8    C  MulP   1.9981  1.9981 sum   3.9963
    9    C  MulP   1.9987  1.9987 sum   3.9974
   10    C  MulP   1.9953  1.9953 sum   3.9906
   11    C  MulP   1.9800  1.9800 sum   3.9599
   12    C  MulP   1.9953  1.9953 sum   3.9906
   13    C  MulP   1.9986  1.9986 sum   3.9972
   14    C  MulP   1.9986  1.9986 sum   3.9972
   15    C  MulP   1.9983  1.9983 sum   3.9966
   16    C  MulP   1.9987  1.9987 sum   3.9974
   17    C  MulP   1.9987  1.9987 sum   3.9973
   18    C  MulP   2.0000  2.0000 sum   4.0001
   19    C  MulP   2.0271  2.0271 sum   4.0542
   20    C  MulP   2.0237  2.0237 sum   4.0475
     ..........
     ......

 Sum of MulP: up   =   240.00000 down          =   240.00000
              total=   480.00000 ideal(neutral)=   480.00000
<DFT>  Total Spin Moment (muB) =  0.000000000000
<DFT>  Mixing_weight= 0.300000000000
<DFT>  Uele   = -206.866940341100  dUele     =  11.856546497970
<DFT>  NormRD =    6.397966508840  Criterion =   0.000000010000

******************* MD= 1  SCF= 5 *******************
<Poisson>  Poisson's equation using FFT...
<Set_Hamiltonian>  Hamiltonian matrix for VNA+dVH+Vxc...
<Band>  Solving the eigenvalue problem...
 KGrids1:  -0.43750  -0.31250  -0.18750  -0.06250   0.06250   0.18750   0.31250   0.43750 
 KGrids2:  -0.43750  -0.31250  -0.18750  -0.06250   0.06250   0.18750   0.31250   0.43750 
 KGrids3:   0.00000 
<Band_DFT>  Eigen, time=10.401094
<Band_DFT>  DM, time=0.000001
    1    C  MulP   1.9955  1.9955 sum   3.9910
    2    C  MulP   1.9955  1.9955 sum   3.9911
    3    C  MulP   1.9956  1.9956 sum   3.9913
    4    C  MulP   1.9954  1.9954 sum   3.9907
    5    C  MulP   1.9984  1.9984 sum   3.9969
    6    C  MulP   1.9957  1.9957 sum   3.9913
    7    C  MulP   1.9959  1.9959 sum   3.9918
    8    C  MulP   1.9983  1.9983 sum   3.9966
    9    C  MulP   1.9954  1.9954 sum   3.9908
   10    C  MulP   1.9940  1.9940 sum   3.9881
   11    C  MulP   1.9776  1.9776 sum   3.9552
   12    C  MulP   1.9940  1.9940 sum   3.9880
   13    C  MulP   1.9954  1.9954 sum   3.9908
   14    C  MulP   1.9958  1.9958 sum   3.9916
   15    C  MulP   1.9989  1.9989 sum   3.9978
   16    C  MulP   1.9959  1.9959 sum   3.9918
   17    C  MulP   1.9983  1.9983 sum   3.9966
   18    C  MulP   1.9956  1.9956 sum   3.9911
   19    C  MulP   2.0464  2.0464 sum   4.0927
   20    C  MulP   2.0451  2.0451 sum   4.0903
     ..........
     ......

 Sum of MulP: up   =   240.00000 down          =   240.00000
              total=   480.00000 ideal(neutral)=   480.00000
<DFT>  Total Spin Moment (muB) =  0.000000000000
<DFT>  Mixing_weight= 0.300000000000
<DFT>  Uele   = -214.389342100690  dUele     =   7.522401759590
<DFT>  NormRD =    4.290045564014  Criterion =   0.000000010000

******************* MD= 1  SCF= 6 *******************
<Poisson>  Poisson's equation using FFT...
<Set_Hamiltonian>  Hamiltonian matrix for VNA+dVH+Vxc...
<Band>  Solving the eigenvalue problem...
 KGrids1:  -0.43750  -0.31250  -0.18750  -0.06250   0.06250   0.18750   0.31250   0.43750 
 KGrids2:  -0.43750  -0.31250  -0.18750  -0.06250   0.06250   0.18750   0.31250   0.43750 
 KGrids3:   0.00000 
<Band_DFT>  Eigen, time=10.412172
<Band_DFT>  DM, time=0.000000
    1    C  MulP   1.9990  1.9990 sum   3.9980
    2    C  MulP   1.9979  1.9979 sum   3.9959
    3    C  MulP   1.9981  1.9981 sum   3.9961
    4    C  MulP   1.9988  1.9988 sum   3.9977
    5    C  MulP   1.9992  1.9992 sum   3.9983
    6    C  MulP   1.9989  1.9989 sum   3.9979
    7    C  MulP   1.9992  1.9992 sum   3.9983
    8    C  MulP   1.9990  1.9990 sum   3.9980
    9    C  MulP   1.9988  1.9988 sum   3.9976
   10    C  MulP   1.9947  1.9947 sum   3.9895
   11    C  MulP   1.9798  1.9798 sum   3.9596
   12    C  MulP   1.9947  1.9947 sum   3.9894
   13    C  MulP   1.9988  1.9988 sum   3.9977
   14    C  MulP   1.9991  1.9991 sum   3.9981
   15    C  MulP   1.9992  1.9992 sum   3.9985
   16    C  MulP   1.9992  1.9992 sum   3.9983
   17    C  MulP   1.9994  1.9994 sum   3.9988
   18    C  MulP   1.9979  1.9979 sum   3.9958
   19    C  MulP   2.0271  2.0271 sum   4.0542
   20    C  MulP   2.0249  2.0249 sum   4.0498
     ..........
     ......

 Sum of MulP: up   =   240.00000 down          =   240.00000
              total=   480.00000 ideal(neutral)=   480.00000
<DFT>  Total Spin Moment (muB) =  0.000000000000
<DFT>  Mixing_weight= 0.300000000000
<DFT>  Uele   = -219.380281716750  dUele     =   4.990939616060
<DFT>  NormRD =    2.907737288313  Criterion =   0.000000010000

******************* MD= 1  SCF= 7 *******************
<Poisson>  Poisson's equation using FFT...
<Set_Hamiltonian>  Hamiltonian matrix for VNA+dVH+Vxc...
<Band>  Solving the eigenvalue problem...
 KGrids1:  -0.43750  -0.31250  -0.18750  -0.06250   0.06250   0.18750   0.31250   0.43750 
 KGrids2:  -0.43750  -0.31250  -0.18750  -0.06250   0.06250   0.18750   0.31250   0.43750 
 KGrids3:   0.00000 
<Band_DFT>  Eigen, time=10.391982
<Band_DFT>  DM, time=0.000000
    1    C  MulP   1.9972  1.9972 sum   3.9944
    2    C  MulP   1.9968  1.9968 sum   3.9936
    3    C  MulP   1.9969  1.9969 sum   3.9938
    4    C  MulP   1.9971  1.9971 sum   3.9941
    5    C  MulP   1.9992  1.9992 sum   3.9985
    6    C  MulP   1.9974  1.9974 sum   3.9948
    7    C  MulP   1.9977  1.9977 sum   3.9953
    8    C  MulP   1.9991  1.9991 sum   3.9981
    9    C  MulP   1.9971  1.9971 sum   3.9942
   10    C  MulP   1.9942  1.9942 sum   3.9884
   11    C  MulP   1.9790  1.9790 sum   3.9579
   12    C  MulP   1.9942  1.9942 sum   3.9884
   13    C  MulP   1.9971  1.9971 sum   3.9942
   14    C  MulP   1.9976  1.9976 sum   3.9952
   15    C  MulP   1.9996  1.9996 sum   3.9991
   16    C  MulP   1.9977  1.9977 sum   3.9953
   17    C  MulP   1.9990  1.9990 sum   3.9981
   18    C  MulP   1.9952  1.9952 sum   3.9903
   19    C  MulP   2.0379  2.0379 sum   4.0757
   20    C  MulP   2.0361  2.0361 sum   4.0722
     ..........
     ......

 Sum of MulP: up   =   240.00000 down          =   240.00000
              total=   480.00000 ideal(neutral)=   480.00000
<DFT>  Total Spin Moment (muB) =  0.000000000000
<DFT>  Mixing_weight= 0.300000000000
<DFT>  Uele   = -222.586536936204  dUele     =   3.206255219454
<DFT>  NormRD =    1.981102451813  Criterion =   0.000000010000

******************* MD= 1  SCF= 8 *******************
<Poisson>  Poisson's equation using FFT...
<Set_Hamiltonian>  Hamiltonian matrix for VNA+dVH+Vxc...
<Band>  Solving the eigenvalue problem...
 KGrids1:  -0.43750  -0.31250  -0.18750  -0.06250   0.06250   0.18750   0.31250   0.43750 
 KGrids2:  -0.43750  -0.31250  -0.18750  -0.06250   0.06250   0.18750   0.31250   0.43750 
 KGrids3:   0.00000 
<Band_DFT>  Eigen, time=10.404787
<Band_DFT>  DM, time=0.000000
    1    C  MulP   1.9989  1.9989 sum   3.9977
    2    C  MulP   1.9980  1.9980 sum   3.9960
    3    C  MulP   1.9981  1.9981 sum   3.9962
    4    C  MulP   1.9987  1.9987 sum   3.9974
    5    C  MulP   1.9996  1.9996 sum   3.9991
    6    C  MulP   1.9989  1.9989 sum   3.9979
    7    C  MulP   1.9992  1.9992 sum   3.9984
    8    C  MulP   1.9994  1.9994 sum   3.9987
    9    C  MulP   1.9987  1.9987 sum   3.9974
   10    C  MulP   1.9946  1.9946 sum   3.9893
   11    C  MulP   1.9802  1.9802 sum   3.9604
   12    C  MulP   1.9946  1.9946 sum   3.9892
   13    C  MulP   1.9987  1.9987 sum   3.9974
   14    C  MulP   1.9991  1.9991 sum   3.9982
   15    C  MulP   1.9997  1.9997 sum   3.9995
   16    C  MulP   1.9992  1.9992 sum   3.9984
   17    C  MulP   1.9995  1.9995 sum   3.9990
   18    C  MulP   1.9964  1.9964 sum   3.9928
   19    C  MulP   2.0282  2.0282 sum   4.0565
   20    C  MulP   2.0262  2.0262 sum   4.0524
     ..........
     ......

 Sum of MulP: up   =   240.00000 down          =   240.00000
              total=   480.00000 ideal(neutral)=   480.00000
<DFT>  Total Spin Moment (muB) =  0.000000000000
<DFT>  Mixing_weight= 0.300000000000
<DFT>  Uele   = -224.815145991325  dUele     =   2.228609055121
<DFT>  NormRD =    1.356562190292  Criterion =   0.000000010000

******************* MD= 1  SCF= 9 *******************
<Poisson>  Poisson's equation using FFT...
<Set_Hamiltonian>  Hamiltonian matrix for VNA+dVH+Vxc...
<Band>  Solving the eigenvalue problem...
 KGrids1:  -0.43750  -0.31250  -0.18750  -0.06250   0.06250   0.18750   0.31250   0.43750 
 KGrids2:  -0.43750  -0.31250  -0.18750  -0.06250   0.06250   0.18750   0.31250   0.43750 
 KGrids3:   0.00000 
<Band_DFT>  Eigen, time=10.398922
<Band_DFT>  DM, time=0.000000
    1    C  MulP   1.9979  1.9979 sum   3.9959
    2    C  MulP   1.9974  1.9974 sum   3.9948
    3    C  MulP   1.9975  1.9975 sum   3.9950
    4    C  MulP   1.9978  1.9978 sum   3.9956
    5    C  MulP   1.9996  1.9996 sum   3.9992
    6    C  MulP   1.9982  1.9982 sum   3.9963
    7    C  MulP   1.9984  1.9984 sum   3.9968
    8    C  MulP   1.9994  1.9994 sum   3.9988
    9    C  MulP   1.9978  1.9978 sum   3.9956
   10    C  MulP   1.9944  1.9944 sum   3.9888
   11    C  MulP   1.9798  1.9798 sum   3.9596
   12    C  MulP   1.9944  1.9944 sum   3.9888
   13    C  MulP   1.9978  1.9978 sum   3.9957
   14    C  MulP   1.9983  1.9983 sum   3.9966
   15    C  MulP   1.9999  1.9999 sum   3.9998
   16    C  MulP   1.9984  1.9984 sum   3.9968
   17    C  MulP   1.9993  1.9993 sum   3.9986
   18    C  MulP   1.9951  1.9951 sum   3.9902
   19    C  MulP   2.0337  2.0337 sum   4.0675
   20    C  MulP   2.0319  2.0319 sum   4.0638
     ..........
     ......

 Sum of MulP: up   =   240.00000 down          =   240.00000
              total=   480.00000 ideal(neutral)=   480.00000
<DFT>  Total Spin Moment (muB) =  0.000000000000
<DFT>  Mixing_weight= 0.300000000000
<DFT>  Uele   = -226.321287936866  dUele     =   1.506141945541
<DFT>  NormRD =    0.933567095626  Criterion =   0.000000010000

******************* MD= 1  SCF=10 *******************
<Poisson>  Poisson's equation using FFT...
<Set_Hamiltonian>  Hamiltonian matrix for VNA+dVH+Vxc...
<Band>  Solving the eigenvalue problem...
 KGrids1:  -0.43750  -0.31250  -0.18750  -0.06250   0.06250   0.18750   0.31250   0.43750 
 KGrids2:  -0.43750  -0.31250  -0.18750  -0.06250   0.06250   0.18750   0.31250   0.43750 
 KGrids3:   0.00000 
<Band_DFT>  Eigen, time=10.414836
<Band_DFT>  DM, time=0.000001
    1    C  MulP   1.9988  1.9988 sum   3.9975
    2    C  MulP   1.9980  1.9980 sum   3.9959
    3    C  MulP   1.9981  1.9981 sum   3.9962
    4    C  MulP   1.9986  1.9986 sum   3.9972
    5    C  MulP   1.9997  1.9997 sum   3.9995
    6    C  MulP   1.9989  1.9989 sum   3.9978
    7    C  MulP   1.9991  1.9991 sum   3.9983
    8    C  MulP   1.9995  1.9995 sum   3.9991
    9    C  MulP   1.9986  1.9986 sum   3.9972
   10    C  MulP   1.9946  1.9946 sum   3.9893
   11    C  MulP   1.9804  1.9804 sum   3.9608
   12    C  MulP   1.9946  1.9946 sum   3.9892
   13    C  MulP   1.9986  1.9986 sum   3.9972
   14    C  MulP   1.9990  1.9990 sum   3.9981
   15    C  MulP   1.9999  1.9999 sum   3.9999
   16    C  MulP   1.9991  1.9991 sum   3.9983
   17    C  MulP   1.9996  1.9996 sum   3.9991
   18    C  MulP   1.9958  1.9958 sum   3.9916
   19    C  MulP   2.0289  2.0289 sum   4.0578
   20    C  MulP   2.0269  2.0269 sum   4.0538
     ..........
     ......

 Sum of MulP: up   =   240.00000 down          =   240.00000
              total=   480.00000 ideal(neutral)=   480.00000
<DFT>  Total Spin Moment (muB) =  0.000000000000
<DFT>  Mixing_weight= 0.300000000000
<DFT>  Uele   = -227.432437482915  dUele     =   1.111149546049
<DFT>  NormRD =    0.644169639189  Criterion =   0.000000010000

******************* MD= 1  SCF=11 *******************
<Poisson>  Poisson's equation using FFT...
<Set_Hamiltonian>  Hamiltonian matrix for VNA+dVH+Vxc...
<Band>  Solving the eigenvalue problem...
 KGrids1:  -0.43750  -0.31250  -0.18750  -0.06250   0.06250   0.18750   0.31250   0.43750 
 KGrids2:  -0.43750  -0.31250  -0.18750  -0.06250   0.06250   0.18750   0.31250   0.43750 
 KGrids3:   0.00000 
<Band_DFT>  Eigen, time=10.398750
<Band_DFT>  DM, time=0.000000
    1    C  MulP   1.9983  1.9983 sum   3.9966
    2    C  MulP   1.9977  1.9977 sum   3.9953
    3    C  MulP   1.9978  1.9978 sum   3.9956
    4    C  MulP   1.9981  1.9981 sum   3.9963
    5    C  MulP   1.9997  1.9997 sum   3.9995
    6    C  MulP   1.9985  1.9985 sum   3.9970
    7    C  MulP   1.9987  1.9987 sum   3.9975
    8    C  MulP   1.9995  1.9995 sum   3.9991
    9    C  MulP   1.9981  1.9981 sum   3.9963
   10    C  MulP   1.9945  1.9945 sum   3.9890
   11    C  MulP   1.9802  1.9802 sum   3.9603
   12    C  MulP   1.9945  1.9945 sum   3.9890
   13    C  MulP   1.9982  1.9982 sum   3.9963
   14    C  MulP   1.9986  1.9986 sum   3.9973
   15    C  MulP   2.0000  2.0000 sum   4.0000
   16    C  MulP   1.9987  1.9987 sum   3.9975
   17    C  MulP   1.9995  1.9995 sum   3.9989
   18    C  MulP   1.9951  1.9951 sum   3.9903
   19    C  MulP   2.0317  2.0317 sum   4.0633
   20    C  MulP   2.0297  2.0297 sum   4.0595
     ..........
     ......

 Sum of MulP: up   =   240.00000 down          =   240.00000
              total=   480.00000 ideal(neutral)=   480.00000
<DFT>  Total Spin Moment (muB) =  0.000000000000
<DFT>  Mixing_weight= 0.300000000000
<DFT>  Uele   = -228.230673819820  dUele     =   0.798236336906
<DFT>  NormRD =    0.446952606729  Criterion =   0.000000010000

******************* MD= 1  SCF=12 *******************
<Poisson>  Poisson's equation using FFT...
<Set_Hamiltonian>  Hamiltonian matrix for VNA+dVH+Vxc...
<Band>  Solving the eigenvalue problem...
 KGrids1:  -0.43750  -0.31250  -0.18750  -0.06250   0.06250   0.18750   0.31250   0.43750 
 KGrids2:  -0.43750  -0.31250  -0.18750  -0.06250   0.06250   0.18750   0.31250   0.43750 
 KGrids3:   0.00000 
<Band_DFT>  Eigen, time=10.414811
<Band_DFT>  DM, time=0.000001
    1    C  MulP   1.9987  1.9987 sum   3.9974
    2    C  MulP   1.9980  1.9980 sum   3.9959
    3    C  MulP   1.9981  1.9981 sum   3.9962
    4    C  MulP   1.9985  1.9985 sum   3.9971
    5    C  MulP   1.9998  1.9998 sum   3.9996
    6    C  MulP   1.9989  1.9989 sum   3.9977
    7    C  MulP   1.9991  1.9991 sum   3.9982
    8    C  MulP   1.9996  1.9996 sum   3.9992
    9    C  MulP   1.9985  1.9985 sum   3.9971
   10    C  MulP   1.9947  1.9947 sum   3.9893
   11    C  MulP   1.9805  1.9805 sum   3.9609
   12    C  MulP   1.9946  1.9946 sum   3.9892
   13    C  MulP   1.9986  1.9986 sum   3.9971
   14    C  MulP   1.9990  1.9990 sum   3.9980
   15    C  MulP   2.0000  2.0000 sum   4.0001
   16    C  MulP   1.9991  1.9991 sum   3.9982
   17    C  MulP   1.9996  1.9996 sum   3.9992
   18    C  MulP   1.9955  1.9955 sum   3.9911
   19    C  MulP   2.0292  2.0292 sum   4.0584
   20    C  MulP   2.0272  2.0272 sum   4.0544
     ..........
     ......

 Sum of MulP: up   =   240.00000 down          =   240.00000
              total=   480.00000 ideal(neutral)=   480.00000
<DFT>  Total Spin Moment (muB) =  0.000000000000
<DFT>  Mixing_weight= 0.300000000000
<DFT>  Uele   = -228.854744526769  dUele     =   0.624070706949
<DFT>  NormRD =    0.310448436376  Criterion =   0.000000010000

******************* MD= 1  SCF=13 *******************
<Poisson>  Poisson's equation using FFT...
<Set_Hamiltonian>  Hamiltonian matrix for VNA+dVH+Vxc...
<Band>  Solving the eigenvalue problem...
 KGrids1:  -0.43750  -0.31250  -0.18750  -0.06250   0.06250   0.18750   0.31250   0.43750 
 KGrids2:  -0.43750  -0.31250  -0.18750  -0.06250   0.06250   0.18750   0.31250   0.43750 
 KGrids3:   0.00000 
<Band_DFT>  Eigen, time=10.418810
<Band_DFT>  DM, time=0.000001
    1    C  MulP   1.9985  1.9985 sum   3.9969
    2    C  MulP   1.9978  1.9978 sum   3.9956
    3    C  MulP   1.9979  1.9979 sum   3.9959
    4    C  MulP   1.9983  1.9983 sum   3.9966
    5    C  MulP   1.9998  1.9998 sum   3.9996
    6    C  MulP   1.9987  1.9987 sum   3.9973
    7    C  MulP   1.9989  1.9989 sum   3.9978
    8    C  MulP   1.9996  1.9996 sum   3.9992
    9    C  MulP   1.9983  1.9983 sum   3.9966
   10    C  MulP   1.9946  1.9946 sum   3.9892
   11    C  MulP   1.9804  1.9804 sum   3.9607
   12    C  MulP   1.9946  1.9946 sum   3.9891
   13    C  MulP   1.9983  1.9983 sum   3.9967
   14    C  MulP   1.9988  1.9988 sum   3.9976
   15    C  MulP   2.0001  2.0001 sum   4.0002
   16    C  MulP   1.9989  1.9989 sum   3.9978
   17    C  MulP   1.9995  1.9995 sum   3.9991
   18    C  MulP   1.9952  1.9952 sum   3.9904
   19    C  MulP   2.0306  2.0306 sum   4.0612
   20    C  MulP   2.0286  2.0286 sum   4.0573
     ..........
     ......

 Sum of MulP: up   =   240.00000 down          =   240.00000
              total=   480.00000 ideal(neutral)=   480.00000
<DFT>  Total Spin Moment (muB) =  0.000000000000
<DFT>  Mixing_weight= 0.300000000000
<DFT>  Uele   = -229.330879381404  dUele     =   0.476134854634
<DFT>  NormRD =    0.217152979516  Criterion =   0.000000010000

******************* MD= 1  SCF=14 *******************
<Poisson>  Poisson's equation using FFT...
<Set_Hamiltonian>  Hamiltonian matrix for VNA+dVH+Vxc...
<Band>  Solving the eigenvalue problem...
 KGrids1:  -0.43750  -0.31250  -0.18750  -0.06250   0.06250   0.18750   0.31250   0.43750 
 KGrids2:  -0.43750  -0.31250  -0.18750  -0.06250   0.06250   0.18750   0.31250   0.43750 
 KGrids3:   0.00000 
<Band_DFT>  Eigen, time=10.399796
<Band_DFT>  DM, time=0.000000
    1    C  MulP   1.9987  1.9987 sum   3.9974
    2    C  MulP   1.9980  1.9980 sum   3.9959
    3    C  MulP   1.9981  1.9981 sum   3.9962
    4    C  MulP   1.9985  1.9985 sum   3.9970
    5    C  MulP   1.9998  1.9998 sum   3.9997
    6    C  MulP   1.9988  1.9988 sum   3.9977
    7    C  MulP   1.9991  1.9991 sum   3.9982
    8    C  MulP   1.9997  1.9997 sum   3.9993
    9    C  MulP   1.9985  1.9985 sum   3.9970
   10    C  MulP   1.9947  1.9947 sum   3.9893
   11    C  MulP   1.9805  1.9805 sum   3.9610
   12    C  MulP   1.9946  1.9946 sum   3.9893
   13    C  MulP   1.9985  1.9985 sum   3.9971
   14    C  MulP   1.9990  1.9990 sum   3.9980
   15    C  MulP   2.0001  2.0001 sum   4.0002
   16    C  MulP   1.9991  1.9991 sum   3.9982
   17    C  MulP   1.9996  1.9996 sum   3.9992
   18    C  MulP   1.9954  1.9954 sum   3.9908
   19    C  MulP   2.0293  2.0293 sum   4.0586
   20    C  MulP   2.0273  2.0273 sum   4.0547
     ..........
     ......

 Sum of MulP: up   =   240.00000 down          =   240.00000
              total=   480.00000 ideal(neutral)=   480.00000
<DFT>  Total Spin Moment (muB) =  0.000000000000
<DFT>  Mixing_weight= 0.300000000000
<DFT>  Uele   = -229.721070168300  dUele     =   0.390190786896
<DFT>  NormRD =    0.152053526674  Criterion =   0.000000010000

******************* MD= 1  SCF=15 *******************
<Poisson>  Poisson's equation using FFT...
<Set_Hamiltonian>  Hamiltonian matrix for VNA+dVH+Vxc...
<Band>  Solving the eigenvalue problem...
 KGrids1:  -0.43750  -0.31250  -0.18750  -0.06250   0.06250   0.18750   0.31250   0.43750 
 KGrids2:  -0.43750  -0.31250  -0.18750  -0.06250   0.06250   0.18750   0.31250   0.43750 
 KGrids3:   0.00000 
<Band_DFT>  Eigen, time=10.430125
<Band_DFT>  DM, time=0.000000
    1    C  MulP   1.9986  1.9986 sum   3.9971
    2    C  MulP   1.9979  1.9979 sum   3.9958
    3    C  MulP   1.9980  1.9980 sum   3.9960
    4    C  MulP   1.9984  1.9984 sum   3.9968
    5    C  MulP   1.9998  1.9998 sum   3.9997
    6    C  MulP   1.9987  1.9987 sum   3.9975
    7    C  MulP   1.9990  1.9990 sum   3.9980
    8    C  MulP   1.9997  1.9997 sum   3.9993
    9    C  MulP   1.9984  1.9984 sum   3.9968
   10    C  MulP   1.9946  1.9946 sum   3.9893
   11    C  MulP   1.9805  1.9805 sum   3.9609
   12    C  MulP   1.9946  1.9946 sum   3.9892
   13    C  MulP   1.9984  1.9984 sum   3.9968
   14    C  MulP   1.9989  1.9989 sum   3.9978
   15    C  MulP   2.0001  2.0001 sum   4.0002
   16    C  MulP   1.9990  1.9990 sum   3.9980
   17    C  MulP   1.9996  1.9996 sum   3.9992
   18    C  MulP   1.9953  1.9953 sum   3.9905
   19    C  MulP   2.0300  2.0300 sum   4.0601
   20    C  MulP   2.0281  2.0281 sum   4.0561
     ..........
     ......

 Sum of MulP: up   =   240.00000 down          =   240.00000
              total=   480.00000 ideal(neutral)=   480.00000
<DFT>  Total Spin Moment (muB) =  0.000000000000
<DFT>  Mixing_weight= 0.030000000000
<DFT>  Uele   = -230.033966670743  dUele     =   0.312896502443
<DFT>  NormRD =    0.108662802734  Criterion =   0.000000010000

******************* MD= 1  SCF=16 *******************
<Poisson>  Poisson's equation using FFT...
<Set_Hamiltonian>  Hamiltonian matrix for VNA+dVH+Vxc...
<Band>  Solving the eigenvalue problem...
 KGrids1:  -0.43750  -0.31250  -0.18750  -0.06250   0.06250   0.18750   0.31250   0.43750 
 KGrids2:  -0.43750  -0.31250  -0.18750  -0.06250   0.06250   0.18750   0.31250   0.43750 
 KGrids3:   0.00000 
<Band_DFT>  Eigen, time=10.423652
<Band_DFT>  DM, time=0.000000
    1    C  MulP   2.0004  2.0004 sum   4.0008
    2    C  MulP   1.9992  1.9992 sum   3.9983
    3    C  MulP   1.9994  1.9994 sum   3.9987
    4    C  MulP   2.0001  2.0001 sum   4.0003
    5    C  MulP   2.0004  2.0004 sum   4.0009
    6    C  MulP   2.0004  2.0004 sum   4.0008
    7    C  MulP   2.0007  2.0007 sum   4.0013
    8    C  MulP   2.0003  2.0003 sum   4.0006
    9    C  MulP   2.0000  2.0000 sum   4.0001
   10    C  MulP   1.9951  1.9951 sum   3.9902
   11    C  MulP   1.9812  1.9812 sum   3.9623
   12    C  MulP   1.9950  1.9950 sum   3.9900
   13    C  MulP   2.0000  2.0000 sum   4.0000
   14    C  MulP   2.0005  2.0005 sum   4.0010
   15    C  MulP   2.0006  2.0006 sum   4.0012
   16    C  MulP   2.0007  2.0007 sum   4.0013
   17    C  MulP   2.0002  2.0002 sum   4.0004
   18    C  MulP   1.9963  1.9963 sum   3.9926
   19    C  MulP   2.0200  2.0200 sum   4.0399
   20    C  MulP   2.0178  2.0178 sum   4.0356
     ..........
     ......

 Sum of MulP: up   =   240.00000 down          =   240.00000
              total=   480.00000 ideal(neutral)=   480.00000
<DFT>  Total Spin Moment (muB) =  0.000000000000
<DFT>  Mixing_weight= 0.030000000000
<DFT>  Uele   = -231.813195256712  dUele     =   1.779228585969
<DFT>  NormRD =    0.138371701902  Criterion =   0.000000010000

******************* MD= 1  SCF=17 *******************
<Poisson>  Poisson's equation using FFT...
<Set_Hamiltonian>  Hamiltonian matrix for VNA+dVH+Vxc...
<Band>  Solving the eigenvalue problem...
 KGrids1:  -0.43750  -0.31250  -0.18750  -0.06250   0.06250   0.18750   0.31250   0.43750 
 KGrids2:  -0.43750  -0.31250  -0.18750  -0.06250   0.06250   0.18750   0.31250   0.43750 
 KGrids3:   0.00000 
<Band_DFT>  Eigen, time=10.408644
<Band_DFT>  DM, time=0.000000
    1    C  MulP   1.9984  1.9984 sum   3.9968
    2    C  MulP   1.9978  1.9978 sum   3.9956
    3    C  MulP   1.9979  1.9979 sum   3.9958
    4    C  MulP   1.9982  1.9982 sum   3.9965
    5    C  MulP   1.9998  1.9998 sum   3.9996
    6    C  MulP   1.9986  1.9986 sum   3.9972
    7    C  MulP   1.9988  1.9988 sum   3.9977
    8    C  MulP   1.9996  1.9996 sum   3.9992
    9    C  MulP   1.9983  1.9983 sum   3.9966
   10    C  MulP   1.9947  1.9947 sum   3.9894
   11    C  MulP   1.9806  1.9806 sum   3.9612
   12    C  MulP   1.9947  1.9947 sum   3.9894
   13    C  MulP   1.9983  1.9983 sum   3.9966
   14    C  MulP   1.9987  1.9987 sum   3.9975
   15    C  MulP   2.0001  2.0001 sum   4.0001
   16    C  MulP   1.9988  1.9988 sum   3.9977
   17    C  MulP   1.9996  1.9996 sum   3.9991
   18    C  MulP   1.9953  1.9953 sum   3.9906
   19    C  MulP   2.0307  2.0307 sum   4.0614
   20    C  MulP   2.0287  2.0287 sum   4.0574
     ..........
     ......

 Sum of MulP: up   =   240.00000 down          =   240.00000
              total=   480.00000 ideal(neutral)=   480.00000
<DFT>  Total Spin Moment (muB) =  0.000000000000
<DFT>  Mixing_weight= 0.030000000000
<DFT>  Uele   = -231.842408898936  dUele     =   0.029213642224
<DFT>  NormRD =    0.024977948438  Criterion =   0.000000010000

******************* MD= 1  SCF=18 *******************
<Poisson>  Poisson's equation using FFT...
<Set_Hamiltonian>  Hamiltonian matrix for VNA+dVH+Vxc...
<Band>  Solving the eigenvalue problem...
 KGrids1:  -0.43750  -0.31250  -0.18750  -0.06250   0.06250   0.18750   0.31250   0.43750 
 KGrids2:  -0.43750  -0.31250  -0.18750  -0.06250   0.06250   0.18750   0.31250   0.43750 
 KGrids3:   0.00000 
<Band_DFT>  Eigen, time=10.412565
<Band_DFT>  DM, time=0.000000
    1    C  MulP   1.9986  1.9986 sum   3.9973
    2    C  MulP   1.9979  1.9979 sum   3.9959
    3    C  MulP   1.9981  1.9981 sum   3.9961
    4    C  MulP   1.9985  1.9985 sum   3.9970
    5    C  MulP   2.0000  2.0000 sum   4.0000
    6    C  MulP   1.9989  1.9989 sum   3.9977
    7    C  MulP   1.9991  1.9991 sum   3.9982
    8    C  MulP   1.9998  1.9998 sum   3.9996
    9    C  MulP   1.9984  1.9984 sum   3.9968
   10    C  MulP   1.9946  1.9946 sum   3.9891
   11    C  MulP   1.9803  1.9803 sum   3.9607
   12    C  MulP   1.9945  1.9945 sum   3.9891
   13    C  MulP   1.9984  1.9984 sum   3.9969
   14    C  MulP   1.9990  1.9990 sum   3.9980
   15    C  MulP   2.0003  2.0003 sum   4.0005
   16    C  MulP   1.9991  1.9991 sum   3.9982
   17    C  MulP   1.9996  1.9996 sum   3.9992
   18    C  MulP   1.9951  1.9951 sum   3.9901
   19    C  MulP   2.0298  2.0298 sum   4.0596
   20    C  MulP   2.0279  2.0279 sum   4.0557
     ..........
     ......

 Sum of MulP: up   =   240.00000 down          =   240.00000
              total=   480.00000 ideal(neutral)=   480.00000
<DFT>  Total Spin Moment (muB) =  0.000000000000
<DFT>  Mixing_weight= 0.030000000000
<DFT>  Uele   = -231.980016663410  dUele     =   0.137607764474
<DFT>  NormRD =    0.008920814892  Criterion =   0.000000010000

******************* MD= 1  SCF=19 *******************
<Poisson>  Poisson's equation using FFT...
<Set_Hamiltonian>  Hamiltonian matrix for VNA+dVH+Vxc...
<Band>  Solving the eigenvalue problem...
 KGrids1:  -0.43750  -0.31250  -0.18750  -0.06250   0.06250   0.18750   0.31250   0.43750 
 KGrids2:  -0.43750  -0.31250  -0.18750  -0.06250   0.06250   0.18750   0.31250   0.43750 
 KGrids3:   0.00000 
<Band_DFT>  Eigen, time=10.422887
<Band_DFT>  DM, time=0.000000
    1    C  MulP   1.9986  1.9986 sum   3.9971
    2    C  MulP   1.9979  1.9979 sum   3.9958
    3    C  MulP   1.9980  1.9980 sum   3.9961
    4    C  MulP   1.9984  1.9984 sum   3.9967
    5    C  MulP   1.9998  1.9998 sum   3.9995
    6    C  MulP   1.9987  1.9987 sum   3.9973
    7    C  MulP   1.9989  1.9989 sum   3.9979
    8    C  MulP   1.9996  1.9996 sum   3.9992
    9    C  MulP   1.9985  1.9985 sum   3.9970
   10    C  MulP   1.9948  1.9948 sum   3.9897
   11    C  MulP   1.9808  1.9808 sum   3.9616
   12    C  MulP   1.9948  1.9948 sum   3.9895
   13    C  MulP   1.9985  1.9985 sum   3.9969
   14    C  MulP   1.9988  1.9988 sum   3.9976
   15    C  MulP   2.0000  2.0000 sum   4.0000
   16    C  MulP   1.9989  1.9989 sum   3.9978
   17    C  MulP   1.9997  1.9997 sum   3.9993
   18    C  MulP   1.9955  1.9955 sum   3.9911
   19    C  MulP   2.0299  2.0299 sum   4.0598
   20    C  MulP   2.0276  2.0276 sum   4.0553
     ..........
     ......

 Sum of MulP: up   =   240.00000 down          =   240.00000
              total=   480.00000 ideal(neutral)=   480.00000
<DFT>  Total Spin Moment (muB) =  0.000000000000
<DFT>  Mixing_weight= 0.030000000000
<DFT>  Uele   = -232.028860500698  dUele     =   0.048843837287
<DFT>  NormRD =    0.009725461644  Criterion =   0.000000010000

******************* MD= 1  SCF=20 *******************
<Poisson>  Poisson's equation using FFT...
<Set_Hamiltonian>  Hamiltonian matrix for VNA+dVH+Vxc...
<Band>  Solving the eigenvalue problem...
 KGrids1:  -0.43750  -0.31250  -0.18750  -0.06250   0.06250   0.18750   0.31250   0.43750 
 KGrids2:  -0.43750  -0.31250  -0.18750  -0.06250   0.06250   0.18750   0.31250   0.43750 
 KGrids3:   0.00000 
<Band_DFT>  Eigen, time=10.418417
<Band_DFT>  DM, time=0.000000
    1    C  MulP   1.9986  1.9986 sum   3.9973
    2    C  MulP   1.9980  1.9980 sum   3.9959
    3    C  MulP   1.9981  1.9981 sum   3.9962
    4    C  MulP   1.9985  1.9985 sum   3.9970
    5    C  MulP   1.9999  1.9999 sum   3.9998
    6    C  MulP   1.9988  1.9988 sum   3.9977
    7    C  MulP   1.9991  1.9991 sum   3.9982
    8    C  MulP   1.9997  1.9997 sum   3.9994
    9    C  MulP   1.9985  1.9985 sum   3.9969
   10    C  MulP   1.9947  1.9947 sum   3.9894
   11    C  MulP   1.9805  1.9805 sum   3.9611
   12    C  MulP   1.9947  1.9947 sum   3.9894
   13    C  MulP   1.9985  1.9985 sum   3.9970
   14    C  MulP   1.9990  1.9990 sum   3.9980
   15    C  MulP   2.0002  2.0002 sum   4.0004
   16    C  MulP   1.9991  1.9991 sum   3.9982
   17    C  MulP   1.9996  1.9996 sum   3.9992
   18    C  MulP   1.9953  1.9953 sum   3.9906
   19    C  MulP   2.0291  2.0291 sum   4.0582
   20    C  MulP   2.0274  2.0274 sum   4.0547
     ..........
     ......

 Sum of MulP: up   =   240.00000 down          =   240.00000
              total=   480.00000 ideal(neutral)=   480.00000
<DFT>  Total Spin Moment (muB) =  0.000000000000
<DFT>  Mixing_weight= 0.030000000000
<DFT>  Uele   = -232.075580887412  dUele     =   0.046720386714
<DFT>  NormRD =    0.002332234238  Criterion =   0.000000010000

******************* MD= 1  SCF=21 *******************
<Poisson>  Poisson's equation using FFT...
<Set_Hamiltonian>  Hamiltonian matrix for VNA+dVH+Vxc...
<Band>  Solving the eigenvalue problem...
 KGrids1:  -0.43750  -0.31250  -0.18750  -0.06250   0.06250   0.18750   0.31250   0.43750 
 KGrids2:  -0.43750  -0.31250  -0.18750  -0.06250   0.06250   0.18750   0.31250   0.43750 
 KGrids3:   0.00000 
<Band_DFT>  Eigen, time=10.438294
<Band_DFT>  DM, time=0.000000
    1    C  MulP   1.9987  1.9987 sum   3.9973
    2    C  MulP   1.9980  1.9980 sum   3.9960
    3    C  MulP   1.9981  1.9981 sum   3.9962
    4    C  MulP   1.9985  1.9985 sum   3.9970
    5    C  MulP   1.9999  1.9999 sum   3.9998
    6    C  MulP   1.9989  1.9989 sum   3.9977
    7    C  MulP   1.9991  1.9991 sum   3.9982
    8    C  MulP   1.9997  1.9997 sum   3.9995
    9    C  MulP   1.9985  1.9985 sum   3.9970
   10    C  MulP   1.9947  1.9947 sum   3.9894
   11    C  MulP   1.9806  1.9806 sum   3.9611
   12    C  MulP   1.9947  1.9947 sum   3.9893
   13    C  MulP   1.9985  1.9985 sum   3.9970
   14    C  MulP   1.9990  1.9990 sum   3.9980
   15    C  MulP   2.0002  2.0002 sum   4.0004
   16    C  MulP   1.9991  1.9991 sum   3.9982
   17    C  MulP   1.9996  1.9996 sum   3.9993
   18    C  MulP   1.9954  1.9954 sum   3.9907
   19    C  MulP   2.0294  2.0294 sum   4.0588
   20    C  MulP   2.0273  2.0273 sum   4.0545
     ..........
     ......

 Sum of MulP: up   =   240.00000 down          =   240.00000
              total=   480.00000 ideal(neutral)=   480.00000
<DFT>  Total Spin Moment (muB) =  0.000000000000
<DFT>  Mixing_weight= 0.030000000000
<DFT>  Uele   = -232.083611341467  dUele     =   0.008030454056
<DFT>  NormRD =    0.001068341535  Criterion =   0.000000010000

******************* MD= 1  SCF=22 *******************
<Poisson>  Poisson's equation using FFT...
<Set_Hamiltonian>  Hamiltonian matrix for VNA+dVH+Vxc...
<Band>  Solving the eigenvalue problem...
 KGrids1:  -0.43750  -0.31250  -0.18750  -0.06250   0.06250   0.18750   0.31250   0.43750 
 KGrids2:  -0.43750  -0.31250  -0.18750  -0.06250   0.06250   0.18750   0.31250   0.43750 
 KGrids3:   0.00000 
<Band_DFT>  Eigen, time=10.427480
<Band_DFT>  DM, time=0.000000
    1    C  MulP   1.9987  1.9987 sum   3.9974
    2    C  MulP   1.9980  1.9980 sum   3.9960
    3    C  MulP   1.9981  1.9981 sum   3.9962
    4    C  MulP   1.9985  1.9985 sum   3.9970
    5    C  MulP   1.9999  1.9999 sum   3.9998
    6    C  MulP   1.9988  1.9988 sum   3.9977
    7    C  MulP   1.9991  1.9991 sum   3.9982
    8    C  MulP   1.9997  1.9997 sum   3.9995
    9    C  MulP   1.9985  1.9985 sum   3.9971
   10    C  MulP   1.9947  1.9947 sum   3.9894
   11    C  MulP   1.9806  1.9806 sum   3.9611
   12    C  MulP   1.9947  1.9947 sum   3.9893
   13    C  MulP   1.9985  1.9985 sum   3.9971
   14    C  MulP   1.9990  1.9990 sum   3.9980
   15    C  MulP   2.0002  2.0002 sum   4.0003
   16    C  MulP   1.9991  1.9991 sum   3.9982
   17    C  MulP   1.9997  1.9997 sum   3.9993
   18    C  MulP   1.9953  1.9953 sum   3.9907
   19    C  MulP   2.0293  2.0293 sum   4.0586
   20    C  MulP   2.0273  2.0273 sum   4.0546
     ..........
     ......

 Sum of MulP: up   =   240.00000 down          =   240.00000
              total=   480.00000 ideal(neutral)=   480.00000
<DFT>  Total Spin Moment (muB) =  0.000000000000
<DFT>  Mixing_weight= 0.030000000000
<DFT>  Uele   = -232.098153973164  dUele     =   0.014542631697
<DFT>  NormRD =    0.000466191242  Criterion =   0.000000010000

******************* MD= 1  SCF=23 *******************
<Poisson>  Poisson's equation using FFT...
<Set_Hamiltonian>  Hamiltonian matrix for VNA+dVH+Vxc...
<Band>  Solving the eigenvalue problem...
 KGrids1:  -0.43750  -0.31250  -0.18750  -0.06250   0.06250   0.18750   0.31250   0.43750 
 KGrids2:  -0.43750  -0.31250  -0.18750  -0.06250   0.06250   0.18750   0.31250   0.43750 
 KGrids3:   0.00000 
<Band_DFT>  Eigen, time=10.435741
<Band_DFT>  DM, time=0.000001
    1    C  MulP   1.9987  1.9987 sum   3.9973
    2    C  MulP   1.9980  1.9980 sum   3.9960
    3    C  MulP   1.9981  1.9981 sum   3.9962
    4    C  MulP   1.9985  1.9985 sum   3.9970
    5    C  MulP   1.9999  1.9999 sum   3.9998
    6    C  MulP   1.9989  1.9989 sum   3.9977
    7    C  MulP   1.9991  1.9991 sum   3.9982
    8    C  MulP   1.9997  1.9997 sum   3.9994
    9    C  MulP   1.9985  1.9985 sum   3.9970
   10    C  MulP   1.9947  1.9947 sum   3.9894
   11    C  MulP   1.9806  1.9806 sum   3.9611
   12    C  MulP   1.9947  1.9947 sum   3.9893
   13    C  MulP   1.9985  1.9985 sum   3.9971
   14    C  MulP   1.9990  1.9990 sum   3.9980
   15    C  MulP   2.0002  2.0002 sum   4.0004
   16    C  MulP   1.9991  1.9991 sum   3.9982
   17    C  MulP   1.9996  1.9996 sum   3.9993
   18    C  MulP   1.9953  1.9953 sum   3.9907
   19    C  MulP   2.0293  2.0293 sum   4.0586
   20    C  MulP   2.0273  2.0273 sum   4.0546
     ..........
     ......

 Sum of MulP: up   =   240.00000 down          =   240.00000
              total=   480.00000 ideal(neutral)=   480.00000
<DFT>  Total Spin Moment (muB) =  0.000000000000
<DFT>  Mixing_weight= 0.030000000000
<DFT>  Uele   = -232.103518221866  dUele     =   0.005364248701
<DFT>  NormRD =    0.000166834923  Criterion =   0.000000010000

******************* MD= 1  SCF=24 *******************
<Poisson>  Poisson's equation using FFT...
<Set_Hamiltonian>  Hamiltonian matrix for VNA+dVH+Vxc...
<Band>  Solving the eigenvalue problem...
 KGrids1:  -0.43750  -0.31250  -0.18750  -0.06250   0.06250   0.18750   0.31250   0.43750 
 KGrids2:  -0.43750  -0.31250  -0.18750  -0.06250   0.06250   0.18750   0.31250   0.43750 
 KGrids3:   0.00000 
<Band_DFT>  Eigen, time=10.423297
<Band_DFT>  DM, time=0.000000
    1    C  MulP   1.9987  1.9987 sum   3.9973
    2    C  MulP   1.9980  1.9980 sum   3.9960
    3    C  MulP   1.9981  1.9981 sum   3.9962
    4    C  MulP   1.9985  1.9985 sum   3.9970
    5    C  MulP   1.9999  1.9999 sum   3.9998
    6    C  MulP   1.9988  1.9988 sum   3.9977
    7    C  MulP   1.9991  1.9991 sum   3.9982
    8    C  MulP   1.9997  1.9997 sum   3.9995
    9    C  MulP   1.9985  1.9985 sum   3.9970
   10    C  MulP   1.9947  1.9947 sum   3.9894
   11    C  MulP   1.9806  1.9806 sum   3.9611
   12    C  MulP   1.9947  1.9947 sum   3.9893
   13    C  MulP   1.9985  1.9985 sum   3.9970
   14    C  MulP   1.9990  1.9990 sum   3.9980
   15    C  MulP   2.0002  2.0002 sum   4.0003
   16    C  MulP   1.9991  1.9991 sum   3.9982
   17    C  MulP   1.9996  1.9996 sum   3.9993
   18    C  MulP   1.9953  1.9953 sum   3.9907
   19    C  MulP   2.0293  2.0293 sum   4.0586
   20    C  MulP   2.0273  2.0273 sum   4.0546
     ..........
     ......

 Sum of MulP: up   =   240.00000 down          =   240.00000
              total=   480.00000 ideal(neutral)=   480.00000
<DFT>  Total Spin Moment (muB) =  0.000000000000
<DFT>  Mixing_weight= 0.030000000000
<DFT>  Uele   = -232.106234053049  dUele     =   0.002715831183
<DFT>  NormRD =    0.000110247203  Criterion =   0.000000010000

******************* MD= 1  SCF=25 *******************
<Poisson>  Poisson's equation using FFT...
<Set_Hamiltonian>  Hamiltonian matrix for VNA+dVH+Vxc...
<Band>  Solving the eigenvalue problem...
 KGrids1:  -0.43750  -0.31250  -0.18750  -0.06250   0.06250   0.18750   0.31250   0.43750 
 KGrids2:  -0.43750  -0.31250  -0.18750  -0.06250   0.06250   0.18750   0.31250   0.43750 
 KGrids3:   0.00000 
<Band_DFT>  Eigen, time=10.454723
<Band_DFT>  DM, time=0.000000
    1    C  MulP   1.9987  1.9987 sum   3.9973
    2    C  MulP   1.9980  1.9980 sum   3.9960
    3    C  MulP   1.9981  1.9981 sum   3.9962
    4    C  MulP   1.9985  1.9985 sum   3.9970
    5    C  MulP   1.9999  1.9999 sum   3.9998
    6    C  MulP   1.9988  1.9988 sum   3.9977
    7    C  MulP   1.9991  1.9991 sum   3.9982
    8    C  MulP   1.9997  1.9997 sum   3.9994
    9    C  MulP   1.9985  1.9985 sum   3.9970
   10    C  MulP   1.9947  1.9947 sum   3.9894
   11    C  MulP   1.9806  1.9806 sum   3.9611
   12    C  MulP   1.9947  1.9947 sum   3.9893
   13    C  MulP   1.9985  1.9985 sum   3.9971
   14    C  MulP   1.9990  1.9990 sum   3.9980
   15    C  MulP   2.0002  2.0002 sum   4.0004
   16    C  MulP   1.9991  1.9991 sum   3.9982
   17    C  MulP   1.9996  1.9996 sum   3.9993
   18    C  MulP   1.9953  1.9953 sum   3.9907
   19    C  MulP   2.0293  2.0293 sum   4.0586
   20    C  MulP   2.0273  2.0273 sum   4.0546
     ..........
     ......

 Sum of MulP: up   =   240.00000 down          =   240.00000
              total=   480.00000 ideal(neutral)=   480.00000
<DFT>  Total Spin Moment (muB) =  0.000000000000
<DFT>  Mixing_weight= 0.030000000000
<DFT>  Uele   = -232.107618066370  dUele     =   0.001384013321
<DFT>  NormRD =    0.000047113234  Criterion =   0.000000010000

******************* MD= 1  SCF=26 *******************
<Poisson>  Poisson's equation using FFT...
<Set_Hamiltonian>  Hamiltonian matrix for VNA+dVH+Vxc...
<Band>  Solving the eigenvalue problem...
 KGrids1:  -0.43750  -0.31250  -0.18750  -0.06250   0.06250   0.18750   0.31250   0.43750 
 KGrids2:  -0.43750  -0.31250  -0.18750  -0.06250   0.06250   0.18750   0.31250   0.43750 
 KGrids3:   0.00000 
<Band_DFT>  Eigen, time=10.415570
<Band_DFT>  DM, time=0.000000
    1    C  MulP   1.9987  1.9987 sum   3.9973
    2    C  MulP   1.9980  1.9980 sum   3.9960
    3    C  MulP   1.9981  1.9981 sum   3.9962
    4    C  MulP   1.9985  1.9985 sum   3.9970
    5    C  MulP   1.9999  1.9999 sum   3.9998
    6    C  MulP   1.9988  1.9988 sum   3.9977
    7    C  MulP   1.9991  1.9991 sum   3.9982
    8    C  MulP   1.9997  1.9997 sum   3.9994
    9    C  MulP   1.9985  1.9985 sum   3.9970
   10    C  MulP   1.9947  1.9947 sum   3.9894
   11    C  MulP   1.9806  1.9806 sum   3.9611
   12    C  MulP   1.9947  1.9947 sum   3.9893
   13    C  MulP   1.9985  1.9985 sum   3.9970
   14    C  MulP   1.9990  1.9990 sum   3.9980
   15    C  MulP   2.0002  2.0002 sum   4.0004
   16    C  MulP   1.9991  1.9991 sum   3.9982
   17    C  MulP   1.9996  1.9996 sum   3.9993
   18    C  MulP   1.9953  1.9953 sum   3.9907
   19    C  MulP   2.0293  2.0293 sum   4.0586
   20    C  MulP   2.0273  2.0273 sum   4.0546
     ..........
     ......

 Sum of MulP: up   =   240.00000 down          =   240.00000
              total=   480.00000 ideal(neutral)=   480.00000
<DFT>  Total Spin Moment (muB) =  0.000000000000
<DFT>  Mixing_weight= 0.030000000000
<DFT>  Uele   = -232.108128418825  dUele     =   0.000510352455
<DFT>  NormRD =    0.000029291211  Criterion =   0.000000010000

******************* MD= 1  SCF=27 *******************
<Poisson>  Poisson's equation using FFT...
<Set_Hamiltonian>  Hamiltonian matrix for VNA+dVH+Vxc...
<Band>  Solving the eigenvalue problem...
 KGrids1:  -0.43750  -0.31250  -0.18750  -0.06250   0.06250   0.18750   0.31250   0.43750 
 KGrids2:  -0.43750  -0.31250  -0.18750  -0.06250   0.06250   0.18750   0.31250   0.43750 
 KGrids3:   0.00000 
<Band_DFT>  Eigen, time=10.431425
<Band_DFT>  DM, time=0.000000
    1    C  MulP   1.9987  1.9987 sum   3.9973
    2    C  MulP   1.9980  1.9980 sum   3.9960
    3    C  MulP   1.9981  1.9981 sum   3.9962
    4    C  MulP   1.9985  1.9985 sum   3.9970
    5    C  MulP   1.9999  1.9999 sum   3.9998
    6    C  MulP   1.9988  1.9988 sum   3.9977
    7    C  MulP   1.9991  1.9991 sum   3.9982
    8    C  MulP   1.9997  1.9997 sum   3.9994
    9    C  MulP   1.9985  1.9985 sum   3.9970
   10    C  MulP   1.9947  1.9947 sum   3.9894
   11    C  MulP   1.9806  1.9806 sum   3.9611
   12    C  MulP   1.9947  1.9947 sum   3.9893
   13    C  MulP   1.9985  1.9985 sum   3.9971
   14    C  MulP   1.9990  1.9990 sum   3.9980
   15    C  MulP   2.0002  2.0002 sum   4.0004
   16    C  MulP   1.9991  1.9991 sum   3.9982
   17    C  MulP   1.9996  1.9996 sum   3.9993
   18    C  MulP   1.9953  1.9953 sum   3.9907
   19    C  MulP   2.0293  2.0293 sum   4.0586
   20    C  MulP   2.0273  2.0273 sum   4.0546
     ..........
     ......

 Sum of MulP: up   =   240.00000 down          =   240.00000
              total=   480.00000 ideal(neutral)=   480.00000
<DFT>  Total Spin Moment (muB) =  0.000000000000
<DFT>  Mixing_weight= 0.030000000000
<DFT>  Uele   = -232.108546939710  dUele     =   0.000418520885
<DFT>  NormRD =    0.000014574411  Criterion =   0.000000010000

******************* MD= 1  SCF=28 *******************
<Poisson>  Poisson's equation using FFT...
<Set_Hamiltonian>  Hamiltonian matrix for VNA+dVH+Vxc...
<Band>  Solving the eigenvalue problem...
 KGrids1:  -0.43750  -0.31250  -0.18750  -0.06250   0.06250   0.18750   0.31250   0.43750 
 KGrids2:  -0.43750  -0.31250  -0.18750  -0.06250   0.06250   0.18750   0.31250   0.43750 
 KGrids3:   0.00000 
<Band_DFT>  Eigen, time=10.422500
<Band_DFT>  DM, time=0.000000
    1    C  MulP   1.9987  1.9987 sum   3.9973
    2    C  MulP   1.9980  1.9980 sum   3.9960
    3    C  MulP   1.9981  1.9981 sum   3.9962
    4    C  MulP   1.9985  1.9985 sum   3.9970
    5    C  MulP   1.9999  1.9999 sum   3.9998
    6    C  MulP   1.9988  1.9988 sum   3.9977
    7    C  MulP   1.9991  1.9991 sum   3.9982
    8    C  MulP   1.9997  1.9997 sum   3.9994
    9    C  MulP   1.9985  1.9985 sum   3.9970
   10    C  MulP   1.9947  1.9947 sum   3.9894
   11    C  MulP   1.9806  1.9806 sum   3.9611
   12    C  MulP   1.9947  1.9947 sum   3.9893
   13    C  MulP   1.9985  1.9985 sum   3.9970
   14    C  MulP   1.9990  1.9990 sum   3.9980
   15    C  MulP   2.0002  2.0002 sum   4.0004
   16    C  MulP   1.9991  1.9991 sum   3.9982
   17    C  MulP   1.9996  1.9996 sum   3.9993
   18    C  MulP   1.9953  1.9953 sum   3.9907
   19    C  MulP   2.0293  2.0293 sum   4.0586
   20    C  MulP   2.0273  2.0273 sum   4.0546
     ..........
     ......

 Sum of MulP: up   =   240.00000 down          =   240.00000
              total=   480.00000 ideal(neutral)=   480.00000
<DFT>  Total Spin Moment (muB) =  0.000000000000
<DFT>  Mixing_weight= 0.030000000000
<DFT>  Uele   = -232.108762869872  dUele     =   0.000215930161
<DFT>  NormRD =    0.000009706170  Criterion =   0.000000010000

******************* MD= 1  SCF=29 *******************
<Poisson>  Poisson's equation using FFT...
<Set_Hamiltonian>  Hamiltonian matrix for VNA+dVH+Vxc...
<Band>  Solving the eigenvalue problem...
 KGrids1:  -0.43750  -0.31250  -0.18750  -0.06250   0.06250   0.18750   0.31250   0.43750 
 KGrids2:  -0.43750  -0.31250  -0.18750  -0.06250   0.06250   0.18750   0.31250   0.43750 
 KGrids3:   0.00000 
<Band_DFT>  Eigen, time=10.418637
<Band_DFT>  DM, time=0.000000
    1    C  MulP   1.9987  1.9987 sum   3.9973
    2    C  MulP   1.9980  1.9980 sum   3.9960
    3    C  MulP   1.9981  1.9981 sum   3.9962
    4    C  MulP   1.9985  1.9985 sum   3.9970
    5    C  MulP   1.9999  1.9999 sum   3.9998
    6    C  MulP   1.9988  1.9988 sum   3.9977
    7    C  MulP   1.9991  1.9991 sum   3.9982
    8    C  MulP   1.9997  1.9997 sum   3.9994
    9    C  MulP   1.9985  1.9985 sum   3.9970
   10    C  MulP   1.9947  1.9947 sum   3.9894
   11    C  MulP   1.9806  1.9806 sum   3.9611
   12    C  MulP   1.9947  1.9947 sum   3.9893
   13    C  MulP   1.9985  1.9985 sum   3.9970
   14    C  MulP   1.9990  1.9990 sum   3.9980
   15    C  MulP   2.0002  2.0002 sum   4.0004
   16    C  MulP   1.9991  1.9991 sum   3.9982
   17    C  MulP   1.9996  1.9996 sum   3.9993
   18    C  MulP   1.9953  1.9953 sum   3.9907
   19    C  MulP   2.0293  2.0293 sum   4.0586
   20    C  MulP   2.0273  2.0273 sum   4.0546
     ..........
     ......

 Sum of MulP: up   =   240.00000 down          =   240.00000
              total=   480.00000 ideal(neutral)=   480.00000
<DFT>  Total Spin Moment (muB) =  0.000000000000
<DFT>  Mixing_weight= 0.030000000000
<DFT>  Uele   = -232.108835360808  dUele     =   0.000072490937
<DFT>  NormRD =    0.000004677691  Criterion =   0.000000010000

******************* MD= 1  SCF=30 *******************
<Poisson>  Poisson's equation using FFT...
<Set_Hamiltonian>  Hamiltonian matrix for VNA+dVH+Vxc...
<Band>  Solving the eigenvalue problem...
 KGrids1:  -0.43750  -0.31250  -0.18750  -0.06250   0.06250   0.18750   0.31250   0.43750 
 KGrids2:  -0.43750  -0.31250  -0.18750  -0.06250   0.06250   0.18750   0.31250   0.43750 
 KGrids3:   0.00000 
<Band_DFT>  Eigen, time=10.448494
<Band_DFT>  DM, time=0.000000
    1    C  MulP   1.9987  1.9987 sum   3.9973
    2    C  MulP   1.9980  1.9980 sum   3.9960
    3    C  MulP   1.9981  1.9981 sum   3.9962
    4    C  MulP   1.9985  1.9985 sum   3.9970
    5    C  MulP   1.9999  1.9999 sum   3.9998
    6    C  MulP   1.9988  1.9988 sum   3.9977
    7    C  MulP   1.9991  1.9991 sum   3.9982
    8    C  MulP   1.9997  1.9997 sum   3.9994
    9    C  MulP   1.9985  1.9985 sum   3.9970
   10    C  MulP   1.9947  1.9947 sum   3.9894
   11    C  MulP   1.9806  1.9806 sum   3.9611
   12    C  MulP   1.9947  1.9947 sum   3.9893
   13    C  MulP   1.9985  1.9985 sum   3.9970
   14    C  MulP   1.9990  1.9990 sum   3.9980
   15    C  MulP   2.0002  2.0002 sum   4.0004
   16    C  MulP   1.9991  1.9991 sum   3.9982
   17    C  MulP   1.9996  1.9996 sum   3.9993
   18    C  MulP   1.9953  1.9953 sum   3.9907
   19    C  MulP   2.0293  2.0293 sum   4.0586
   20    C  MulP   2.0273  2.0273 sum   4.0546
     ..........
     ......

 Sum of MulP: up   =   240.00000 down          =   240.00000
              total=   480.00000 ideal(neutral)=   480.00000
<DFT>  Total Spin Moment (muB) =  0.000000000000
<DFT>  Mixing_weight= 0.030000000000
<DFT>  Uele   = -232.108910916033  dUele     =   0.000075555225
<DFT>  NormRD =    0.000004031070  Criterion =   0.000000010000

******************* MD= 1  SCF=31 *******************
<Poisson>  Poisson's equation using FFT...
<Set_Hamiltonian>  Hamiltonian matrix for VNA+dVH+Vxc...
<Band>  Solving the eigenvalue problem...
 KGrids1:  -0.43750  -0.31250  -0.18750  -0.06250   0.06250   0.18750   0.31250   0.43750 
 KGrids2:  -0.43750  -0.31250  -0.18750  -0.06250   0.06250   0.18750   0.31250   0.43750 
 KGrids3:   0.00000 
<Band_DFT>  Eigen, time=10.425179
<Band_DFT>  DM, time=0.000000
    1    C  MulP   1.9987  1.9987 sum   3.9973
    2    C  MulP   1.9980  1.9980 sum   3.9960
    3    C  MulP   1.9981  1.9981 sum   3.9962
    4    C  MulP   1.9985  1.9985 sum   3.9970
    5    C  MulP   1.9999  1.9999 sum   3.9998
    6    C  MulP   1.9988  1.9988 sum   3.9977
    7    C  MulP   1.9991  1.9991 sum   3.9982
    8    C  MulP   1.9997  1.9997 sum   3.9994
    9    C  MulP   1.9985  1.9985 sum   3.9970
   10    C  MulP   1.9947  1.9947 sum   3.9894
   11    C  MulP   1.9806  1.9806 sum   3.9611
   12    C  MulP   1.9947  1.9947 sum   3.9893
   13    C  MulP   1.9985  1.9985 sum   3.9970
   14    C  MulP   1.9990  1.9990 sum   3.9980
   15    C  MulP   2.0002  2.0002 sum   4.0004
   16    C  MulP   1.9991  1.9991 sum   3.9982
   17    C  MulP   1.9996  1.9996 sum   3.9993
   18    C  MulP   1.9953  1.9953 sum   3.9907
   19    C  MulP   2.0293  2.0293 sum   4.0586
   20    C  MulP   2.0273  2.0273 sum   4.0546
     ..........
     ......

 Sum of MulP: up   =   240.00000 down          =   240.00000
              total=   480.00000 ideal(neutral)=   480.00000
<DFT>  Total Spin Moment (muB) =  0.000000000000
<DFT>  Mixing_weight= 0.030000000000
<DFT>  Uele   = -232.108952614537  dUele     =   0.000041698503
<DFT>  NormRD =    0.000001853920  Criterion =   0.000000010000

******************* MD= 1  SCF=32 *******************
<Poisson>  Poisson's equation using FFT...
<Set_Hamiltonian>  Hamiltonian matrix for VNA+dVH+Vxc...
<Band>  Solving the eigenvalue problem...
 KGrids1:  -0.43750  -0.31250  -0.18750  -0.06250   0.06250   0.18750   0.31250   0.43750 
 KGrids2:  -0.43750  -0.31250  -0.18750  -0.06250   0.06250   0.18750   0.31250   0.43750 
 KGrids3:   0.00000 
<Band_DFT>  Eigen, time=10.435397
<Band_DFT>  DM, time=0.000000
    1    C  MulP   1.9987  1.9987 sum   3.9973
    2    C  MulP   1.9980  1.9980 sum   3.9960
    3    C  MulP   1.9981  1.9981 sum   3.9962
    4    C  MulP   1.9985  1.9985 sum   3.9970
    5    C  MulP   1.9999  1.9999 sum   3.9998
    6    C  MulP   1.9988  1.9988 sum   3.9977
    7    C  MulP   1.9991  1.9991 sum   3.9982
    8    C  MulP   1.9997  1.9997 sum   3.9994
    9    C  MulP   1.9985  1.9985 sum   3.9970
   10    C  MulP   1.9947  1.9947 sum   3.9894
   11    C  MulP   1.9806  1.9806 sum   3.9611
   12    C  MulP   1.9947  1.9947 sum   3.9893
   13    C  MulP   1.9985  1.9985 sum   3.9970
   14    C  MulP   1.9990  1.9990 sum   3.9980
   15    C  MulP   2.0002  2.0002 sum   4.0004
   16    C  MulP   1.9991  1.9991 sum   3.9982
   17    C  MulP   1.9996  1.9996 sum   3.9993
   18    C  MulP   1.9953  1.9953 sum   3.9907
   19    C  MulP   2.0293  2.0293 sum   4.0586
   20    C  MulP   2.0273  2.0273 sum   4.0546
     ..........
     ......

 Sum of MulP: up   =   240.00000 down          =   240.00000
              total=   480.00000 ideal(neutral)=   480.00000
<DFT>  Total Spin Moment (muB) =  0.000000000000
<DFT>  Mixing_weight= 0.030000000000
<DFT>  Uele   = -232.108981736862  dUele     =   0.000029122326
<DFT>  NormRD =    0.000001279429  Criterion =   0.000000010000

******************* MD= 1  SCF=33 *******************
<Poisson>  Poisson's equation using FFT...
<Set_Hamiltonian>  Hamiltonian matrix for VNA+dVH+Vxc...
<Band>  Solving the eigenvalue problem...
 KGrids1:  -0.43750  -0.31250  -0.18750  -0.06250   0.06250   0.18750   0.31250   0.43750 
 KGrids2:  -0.43750  -0.31250  -0.18750  -0.06250   0.06250   0.18750   0.31250   0.43750 
 KGrids3:   0.00000 
<Band_DFT>  Eigen, time=10.438140
<Band_DFT>  DM, time=0.000000
    1    C  MulP   1.9987  1.9987 sum   3.9973
    2    C  MulP   1.9980  1.9980 sum   3.9960
    3    C  MulP   1.9981  1.9981 sum   3.9962
    4    C  MulP   1.9985  1.9985 sum   3.9970
    5    C  MulP   1.9999  1.9999 sum   3.9998
    6    C  MulP   1.9988  1.9988 sum   3.9977
    7    C  MulP   1.9991  1.9991 sum   3.9982
    8    C  MulP   1.9997  1.9997 sum   3.9994
    9    C  MulP   1.9985  1.9985 sum   3.9970
   10    C  MulP   1.9947  1.9947 sum   3.9894
   11    C  MulP   1.9806  1.9806 sum   3.9611
   12    C  MulP   1.9947  1.9947 sum   3.9893
   13    C  MulP   1.9985  1.9985 sum   3.9970
   14    C  MulP   1.9990  1.9990 sum   3.9980
   15    C  MulP   2.0002  2.0002 sum   4.0004
   16    C  MulP   1.9991  1.9991 sum   3.9982
   17    C  MulP   1.9996  1.9996 sum   3.9993
   18    C  MulP   1.9953  1.9953 sum   3.9907
   19    C  MulP   2.0293  2.0293 sum   4.0586
   20    C  MulP   2.0273  2.0273 sum   4.0546
     ..........
     ......

 Sum of MulP: up   =   240.00000 down          =   240.00000
              total=   480.00000 ideal(neutral)=   480.00000
<DFT>  Total Spin Moment (muB) =  0.000000000000
<DFT>  Mixing_weight= 0.030000000000
<DFT>  Uele   = -232.109013042750  dUele     =   0.000031305888
<DFT>  NormRD =    0.000000774625  Criterion =   0.000000010000

******************* MD= 1  SCF=34 *******************
<Poisson>  Poisson's equation using FFT...
<Set_Hamiltonian>  Hamiltonian matrix for VNA+dVH+Vxc...
<Band>  Solving the eigenvalue problem...
 KGrids1:  -0.43750  -0.31250  -0.18750  -0.06250   0.06250   0.18750   0.31250   0.43750 
 KGrids2:  -0.43750  -0.31250  -0.18750  -0.06250   0.06250   0.18750   0.31250   0.43750 
 KGrids3:   0.00000 
<Band_DFT>  Eigen, time=10.425658
<Band_DFT>  DM, time=0.000001
    1    C  MulP   1.9987  1.9987 sum   3.9973
    2    C  MulP   1.9980  1.9980 sum   3.9960
    3    C  MulP   1.9981  1.9981 sum   3.9962
    4    C  MulP   1.9985  1.9985 sum   3.9970
    5    C  MulP   1.9999  1.9999 sum   3.9998
    6    C  MulP   1.9988  1.9988 sum   3.9977
    7    C  MulP   1.9991  1.9991 sum   3.9982
    8    C  MulP   1.9997  1.9997 sum   3.9994
    9    C  MulP   1.9985  1.9985 sum   3.9970
   10    C  MulP   1.9947  1.9947 sum   3.9894
   11    C  MulP   1.9806  1.9806 sum   3.9611
   12    C  MulP   1.9947  1.9947 sum   3.9893
   13    C  MulP   1.9985  1.9985 sum   3.9970
   14    C  MulP   1.9990  1.9990 sum   3.9980
   15    C  MulP   2.0002  2.0002 sum   4.0004
   16    C  MulP   1.9991  1.9991 sum   3.9982
   17    C  MulP   1.9996  1.9996 sum   3.9993
   18    C  MulP   1.9953  1.9953 sum   3.9907
   19    C  MulP   2.0293  2.0293 sum   4.0586
   20    C  MulP   2.0273  2.0273 sum   4.0546
     ..........
     ......

 Sum of MulP: up   =   240.00000 down          =   240.00000
              total=   480.00000 ideal(neutral)=   480.00000
<DFT>  Total Spin Moment (muB) =  0.000000000000
<DFT>  Mixing_weight= 0.030000000000
<DFT>  Uele   = -232.109041685129  dUele     =   0.000028642380
<DFT>  NormRD =    0.000000300098  Criterion =   0.000000010000

******************* MD= 1  SCF=35 *******************
<Poisson>  Poisson's equation using FFT...
<Set_Hamiltonian>  Hamiltonian matrix for VNA+dVH+Vxc...
<Band>  Solving the eigenvalue problem...
 KGrids1:  -0.43750  -0.31250  -0.18750  -0.06250   0.06250   0.18750   0.31250   0.43750 
 KGrids2:  -0.43750  -0.31250  -0.18750  -0.06250   0.06250   0.18750   0.31250   0.43750 
 KGrids3:   0.00000 
<Band_DFT>  Eigen, time=10.441931
<Band_DFT>  DM, time=0.000001
    1    C  MulP   1.9987  1.9987 sum   3.9973
    2    C  MulP   1.9980  1.9980 sum   3.9960
    3    C  MulP   1.9981  1.9981 sum   3.9962
    4    C  MulP   1.9985  1.9985 sum   3.9970
    5    C  MulP   1.9999  1.9999 sum   3.9998
    6    C  MulP   1.9988  1.9988 sum   3.9977
    7    C  MulP   1.9991  1.9991 sum   3.9982
    8    C  MulP   1.9997  1.9997 sum   3.9994
    9    C  MulP   1.9985  1.9985 sum   3.9970
   10    C  MulP   1.9947  1.9947 sum   3.9894
   11    C  MulP   1.9806  1.9806 sum   3.9611
   12    C  MulP   1.9947  1.9947 sum   3.9893
   13    C  MulP   1.9985  1.9985 sum   3.9970
   14    C  MulP   1.9990  1.9990 sum   3.9980
   15    C  MulP   2.0002  2.0002 sum   4.0004
   16    C  MulP   1.9991  1.9991 sum   3.9982
   17    C  MulP   1.9996  1.9996 sum   3.9993
   18    C  MulP   1.9953  1.9953 sum   3.9907
   19    C  MulP   2.0293  2.0293 sum   4.0586
   20    C  MulP   2.0273  2.0273 sum   4.0546
     ..........
     ......

 Sum of MulP: up   =   240.00000 down          =   240.00000
              total=   480.00000 ideal(neutral)=   480.00000
<DFT>  Total Spin Moment (muB) =  0.000000000000
<DFT>  Mixing_weight= 0.030000000000
<DFT>  Uele   = -232.109051703328  dUele     =   0.000010018198
<DFT>  NormRD =    0.000000188790  Criterion =   0.000000010000

******************* MD= 1  SCF=36 *******************
<Poisson>  Poisson's equation using FFT...
<Set_Hamiltonian>  Hamiltonian matrix for VNA+dVH+Vxc...
<Band>  Solving the eigenvalue problem...
 KGrids1:  -0.43750  -0.31250  -0.18750  -0.06250   0.06250   0.18750   0.31250   0.43750 
 KGrids2:  -0.43750  -0.31250  -0.18750  -0.06250   0.06250   0.18750   0.31250   0.43750 
 KGrids3:   0.00000 
<Band_DFT>  Eigen, time=10.431052
<Band_DFT>  DM, time=0.000000
    1    C  MulP   1.9987  1.9987 sum   3.9973
    2    C  MulP   1.9980  1.9980 sum   3.9960
    3    C  MulP   1.9981  1.9981 sum   3.9962
    4    C  MulP   1.9985  1.9985 sum   3.9970
    5    C  MulP   1.9999  1.9999 sum   3.9998
    6    C  MulP   1.9988  1.9988 sum   3.9977
    7    C  MulP   1.9991  1.9991 sum   3.9982
    8    C  MulP   1.9997  1.9997 sum   3.9994
    9    C  MulP   1.9985  1.9985 sum   3.9970
   10    C  MulP   1.9947  1.9947 sum   3.9894
   11    C  MulP   1.9806  1.9806 sum   3.9611
   12    C  MulP   1.9947  1.9947 sum   3.9893
   13    C  MulP   1.9985  1.9985 sum   3.9970
   14    C  MulP   1.9990  1.9990 sum   3.9980
   15    C  MulP   2.0002  2.0002 sum   4.0004
   16    C  MulP   1.9991  1.9991 sum   3.9982
   17    C  MulP   1.9996  1.9996 sum   3.9993
   18    C  MulP   1.9953  1.9953 sum   3.9907
   19    C  MulP   2.0293  2.0293 sum   4.0586
   20    C  MulP   2.0273  2.0273 sum   4.0546
     ..........
     ......

 Sum of MulP: up   =   240.00000 down          =   240.00000
              total=   480.00000 ideal(neutral)=   480.00000
<DFT>  Total Spin Moment (muB) =  0.000000000000
<DFT>  Mixing_weight= 0.030000000000
<DFT>  Uele   = -232.109054855206  dUele     =   0.000003151879
<DFT>  NormRD =    0.000000055941  Criterion =   0.000000010000

******************* MD= 1  SCF=37 *******************
<Poisson>  Poisson's equation using FFT...
<Set_Hamiltonian>  Hamiltonian matrix for VNA+dVH+Vxc...
<Band>  Solving the eigenvalue problem...
 KGrids1:  -0.43750  -0.31250  -0.18750  -0.06250   0.06250   0.18750   0.31250   0.43750 
 KGrids2:  -0.43750  -0.31250  -0.18750  -0.06250   0.06250   0.18750   0.31250   0.43750 
 KGrids3:   0.00000 
<Band_DFT>  Eigen, time=10.452711
<Band_DFT>  DM, time=0.000001
    1    C  MulP   1.9987  1.9987 sum   3.9973
    2    C  MulP   1.9980  1.9980 sum   3.9960
    3    C  MulP   1.9981  1.9981 sum   3.9962
    4    C  MulP   1.9985  1.9985 sum   3.9970
    5    C  MulP   1.9999  1.9999 sum   3.9998
    6    C  MulP   1.9988  1.9988 sum   3.9977
    7    C  MulP   1.9991  1.9991 sum   3.9982
    8    C  MulP   1.9997  1.9997 sum   3.9994
    9    C  MulP   1.9985  1.9985 sum   3.9970
   10    C  MulP   1.9947  1.9947 sum   3.9894
   11    C  MulP   1.9806  1.9806 sum   3.9611
   12    C  MulP   1.9947  1.9947 sum   3.9893
   13    C  MulP   1.9985  1.9985 sum   3.9970
   14    C  MulP   1.9990  1.9990 sum   3.9980
   15    C  MulP   2.0002  2.0002 sum   4.0004
   16    C  MulP   1.9991  1.9991 sum   3.9982
   17    C  MulP   1.9996  1.9996 sum   3.9993
   18    C  MulP   1.9953  1.9953 sum   3.9907
   19    C  MulP   2.0293  2.0293 sum   4.0586
   20    C  MulP   2.0273  2.0273 sum   4.0546
     ..........
     ......

 Sum of MulP: up   =   240.00000 down          =   240.00000
              total=   480.00000 ideal(neutral)=   480.00000
<DFT>  Total Spin Moment (muB) =  0.000000000000
<DFT>  Mixing_weight= 0.030000000000
<DFT>  Uele   = -232.109056537369  dUele     =   0.000001682163
<DFT>  NormRD =    0.000000012229  Criterion =   0.000000010000

******************* MD= 1  SCF=38 *******************
<Poisson>  Poisson's equation using FFT...
<Set_Hamiltonian>  Hamiltonian matrix for VNA+dVH+Vxc...
<Band>  Solving the eigenvalue problem...
 KGrids1:  -0.43750  -0.31250  -0.18750  -0.06250   0.06250   0.18750   0.31250   0.43750 
 KGrids2:  -0.43750  -0.31250  -0.18750  -0.06250   0.06250   0.18750   0.31250   0.43750 
 KGrids3:   0.00000 
<Band_DFT>  Eigen, time=10.431696
<Band_DFT>  DM, time=0.000000
    1    C  MulP   1.9987  1.9987 sum   3.9973
    2    C  MulP   1.9980  1.9980 sum   3.9960
    3    C  MulP   1.9981  1.9981 sum   3.9962
    4    C  MulP   1.9985  1.9985 sum   3.9970
    5    C  MulP   1.9999  1.9999 sum   3.9998
    6    C  MulP   1.9988  1.9988 sum   3.9977
    7    C  MulP   1.9991  1.9991 sum   3.9982
    8    C  MulP   1.9997  1.9997 sum   3.9994
    9    C  MulP   1.9985  1.9985 sum   3.9970
   10    C  MulP   1.9947  1.9947 sum   3.9894
   11    C  MulP   1.9806  1.9806 sum   3.9611
   12    C  MulP   1.9947  1.9947 sum   3.9893
   13    C  MulP   1.9985  1.9985 sum   3.9970
   14    C  MulP   1.9990  1.9990 sum   3.9980
   15    C  MulP   2.0002  2.0002 sum   4.0004
   16    C  MulP   1.9991  1.9991 sum   3.9982
   17    C  MulP   1.9996  1.9996 sum   3.9993
   18    C  MulP   1.9953  1.9953 sum   3.9907
   19    C  MulP   2.0293  2.0293 sum   4.0586
   20    C  MulP   2.0273  2.0273 sum   4.0546
     ..........
     ......

[...]
    3    C  MulP   1.9981  1.9981 sum   3.9962
    4    C  MulP   1.9985  1.9985 sum   3.9970
    5    C  MulP   1.9999  1.9999 sum   3.9998
    6    C  MulP   1.9989  1.9989 sum   3.9977
    7    C  MulP   1.9991  1.9991 sum   3.9982
    8    C  MulP   1.9997  1.9997 sum   3.9995
    9    C  MulP   1.9985  1.9985 sum   3.9969
   10    C  MulP   1.9947  1.9947 sum   3.9894
   11    C  MulP   1.9809  1.9809 sum   3.9617
   12    C  MulP   1.9948  1.9948 sum   3.9897
   13    C  MulP   1.9985  1.9985 sum   3.9971
   14    C  MulP   1.9990  1.9990 sum   3.9980
   15    C  MulP   2.0002  2.0002 sum   4.0004
   16    C  MulP   1.9991  1.9991 sum   3.9982
   17    C  MulP   1.9997  1.9997 sum   3.9994
   18    C  MulP   1.9955  1.9955 sum   3.9909
   19    C  MulP   2.0302  2.0302 sum   4.0604
   20    C  MulP   2.0258  2.0258 sum   4.0517
     ..........
     ......

 Sum of MulP: up   =   240.00000 down          =   240.00000
              total=   480.00000 ideal(neutral)=   480.00000
<DFT>  Total Spin Moment (muB) =  0.000000000000
<DFT>  Mixing_weight= 0.030000000000
<DFT>  Uele   = -231.838183999326  dUele     =   0.000000012417
<DFT>  NormRD =    0.000000090485  Criterion =   0.000000010000

******************* MD=44  SCF=19 *******************
<Poisson>  Poisson's equation using FFT...
<Set_Hamiltonian>  Hamiltonian matrix for VNA+dVH+Vxc...
<Band>  Solving the eigenvalue problem...
 KGrids1:  -0.43750  -0.31250  -0.18750  -0.06250   0.06250   0.18750   0.31250   0.43750 
 KGrids2:  -0.43750  -0.31250  -0.18750  -0.06250   0.06250   0.18750   0.31250   0.43750 
 KGrids3:   0.00000 
<Band_DFT>  Eigen, time=10.576776
<Band_DFT>  DM, time=0.000001
    1    C  MulP   1.9987  1.9987 sum   3.9974
    2    C  MulP   1.9980  1.9980 sum   3.9960
    3    C  MulP   1.9981  1.9981 sum   3.9962
    4    C  MulP   1.9985  1.9985 sum   3.9970
    5    C  MulP   1.9999  1.9999 sum   3.9998
    6    C  MulP   1.9989  1.9989 sum   3.9977
    7    C  MulP   1.9991  1.9991 sum   3.9982
    8    C  MulP   1.9997  1.9997 sum   3.9995
    9    C  MulP   1.9985  1.9985 sum   3.9969
   10    C  MulP   1.9947  1.9947 sum   3.9894
   11    C  MulP   1.9809  1.9809 sum   3.9617
   12    C  MulP   1.9948  1.9948 sum   3.9897
   13    C  MulP   1.9985  1.9985 sum   3.9971
   14    C  MulP   1.9990  1.9990 sum   3.9980
   15    C  MulP   2.0002  2.0002 sum   4.0004
   16    C  MulP   1.9991  1.9991 sum   3.9982
   17    C  MulP   1.9997  1.9997 sum   3.9994
   18    C  MulP   1.9955  1.9955 sum   3.9909
   19    C  MulP   2.0302  2.0302 sum   4.0604
   20    C  MulP   2.0258  2.0258 sum   4.0517
     ..........
     ......

 Sum of MulP: up   =   240.00000 down          =   240.00000
              total=   480.00000 ideal(neutral)=   480.00000
<DFT>  Total Spin Moment (muB) =  0.000000000000
<DFT>  Mixing_weight= 0.030000000000
<DFT>  Uele   = -231.838184008447  dUele     =   0.000000009121
<DFT>  NormRD =    0.000000034229  Criterion =   0.000000010000
<MD=44>  Force calculation
  Force calculation #1
  Force calculation #2
  Force calculation #3
  Force calculation #4
  Force calculation #5
<MD=44>  Total Energy
  Force calculation #6
  Force calculation #7

*******************************************************
                  Dipole moment (Debye)                 
*******************************************************

 Absolute D        0.14170494

                      Dx                Dy                Dz
 Total             -0.00228033       -0.00173971       -0.14167591
 Core           11376.85228738    19705.28997565    24488.74440186
 Electron      -11376.85456770   -19705.29171536   -24488.88607777
 Back ground       -0.00000000       -0.00000000       -0.00000000

*******************************************************
                Total Energy (Hartree) at MD =44        
*******************************************************

  Uele  =    -231.838184008447

  Ukin  =     506.446644952746
  UH0   =   -6488.030239975117
  UH1   =       1.891713582076
  Una   =    -366.837885574707
  Unl   =     -55.077475234334
  Uxc0  =    -116.425484220015
  Uxc1  =    -116.425484220015
  Ucore =    5919.208284580271
  Uhub  =       0.000000000000
  Ucs   =       0.000000000000
  Uzs   =       0.000000000000
  Uzo   =       0.000000000000
  Uef   =       0.000000000000
  UvdW  =       0.000000000000
  Uch   =       0.000000000000
  Utot  =    -715.249926109095

  UpV   =       0.000000000000
  Enpy  =    -715.249926109095
  Note:

  Uele:   band energy
  Ukin:   kinetic energy
  UH0:    electric part of screened Coulomb energy
  UH1:    difference electron-electron Coulomb energy
  Una:    neutral atom potential energy
  Unl:    non-local potential energy
  Uxc0:   exchange-correlation energy for alpha spin
  Uxc1:   exchange-correlation energy for beta spin
  Ucore:  core-core Coulomb energy
  Uhub:   LDA+U energy
  Ucs:    constraint energy for spin orientation
  Uzs:    Zeeman term for spin magnetic moment
  Uzo:    Zeeman term for orbital magnetic moment
  Uef:    electric energy by electric field
  UvdW:   semi-empirical vdW energy 
  Uch:    penalty term to create a core hole
  UpV:    pressure times volume
  Enpy:   Enthalpy = Utot + UpV
  (see also PRB 72, 045121(2005) for the energy contributions)


*******************************************************
           Computational times (s) at MD =44            
*******************************************************

  DFT in total      =  242.52965

  Set_OLP_Kin       =    0.58524
  Set_Nonlocal      =    2.11469
  Set_ProExpn_VNA   =    3.60974
  Set_Hamiltonian   =   14.15017
  Poisson           =    0.22032
  diagonalization   =  209.14270
  Mixing_DM         =    2.01767
  Force             =    2.95984
  Total_Energy      =    0.91028
  Set_Aden_Grid     =    0.27118
  Set_Orbitals_Grid =    0.26878
  Set_Density_Grid  =    5.40808
  RestartFileDFT    =    0.36928
  Mulliken_Charge   =    0.01187
  FFT(2D)_Density   =    0.23579

The SCF was achieved at MD=  44

*******************************************************
             MD or geometry opt. at MD =44              
*******************************************************


The geometry optimization was achieved.
<RF>  |Maximum force| (Hartree/Bohr) = 0.000061679194
<RF>  Criterion       (Hartree/Bohr) = 0.000100000000

     atom=   1, XYZ(ang) Fxyz(a.u.)=   0.0048    1.4329   10.5444    -0.0000    0.0000    0.0000
     atom=   2, XYZ(ang) Fxyz(a.u.)=  -1.2210    3.5690   10.5449    -0.0000   -0.0000    0.0000
     atom=   3, XYZ(ang) Fxyz(a.u.)=  -2.4543    5.7050   10.5448    -0.0000   -0.0000    0.0001
     atom=   4, XYZ(ang) Fxyz(a.u.)=  -3.6914    7.8347   10.5440     0.0000    0.0000    0.0000
     atom=   5, XYZ(ang) Fxyz(a.u.)=  -4.9350    9.9685   10.5436     0.0000    0.0000   -0.0000
     atom=   6, XYZ(ang) Fxyz(a.u.)=  -6.1751   12.1031   10.5439     0.0000    0.0000   -0.0000
     atom=   7, XYZ(ang) Fxyz(a.u.)=  -7.4098   14.2418   10.5440     0.0000    0.0000   -0.0000
     atom=   8, XYZ(ang) Fxyz(a.u.)=  -8.6383   16.3831   10.5442     0.0000   -0.0000    0.0000
     atom=   9, XYZ(ang) Fxyz(a.u.)=   2.4740    1.4432   10.5468     0.0000   -0.0000    0.0001
     atom=  10, XYZ(ang) Fxyz(a.u.)=   1.2532    3.5899   10.5476     0.0000    0.0000    0.0000
     atom=  11, XYZ(ang) Fxyz(a.u.)=   0.0237    5.7123   10.5481     0.0000    0.0000    0.0000
     atom=  12, XYZ(ang) Fxyz(a.u.)=  -1.1996    7.8379   10.5469     0.0000    0.0000    0.0000
     atom=  13, XYZ(ang) Fxyz(a.u.)=  -2.4488    9.9684   10.5457     0.0000    0.0000   -0.0000
     atom=  14, XYZ(ang) Fxyz(a.u.)=  -3.6956   12.1035   10.5453    -0.0000    0.0000   -0.0000
     atom=  15, XYZ(ang) Fxyz(a.u.)=  -4.9353   14.2451   10.5455    -0.0000    0.0000    0.0000
     atom=  16, XYZ(ang) Fxyz(a.u.)=  -6.1697   16.3896   10.5460     0.0000   -0.0000    0.0000
     atom=  17, XYZ(ang) Fxyz(a.u.)=   4.9348    1.4505   10.5503    -0.0000   -0.0000    0.0000
     atom=  18, XYZ(ang) Fxyz(a.u.)=   3.7148    3.6136   10.5518    -0.0000   -0.0000    0.0001
     atom=  19, XYZ(ang) Fxyz(a.u.)=   2.5247    5.7088   10.5529    -0.0000    0.0000    0.0000
     atom=  20, XYZ(ang) Fxyz(a.u.)=   1.2706    7.8818   10.5513     0.0000   -0.0000    0.0000
     atom=  21, XYZ(ang) Fxyz(a.u.)=   0.0507    9.9581   10.5494     0.0000   -0.0000   -0.0000
     atom=  22, XYZ(ang) Fxyz(a.u.)=  -1.2128   12.0961   10.5488    -0.0000    0.0000   -0.0000
     atom=  23, XYZ(ang) Fxyz(a.u.)=  -2.4607   14.2424   10.5488    -0.0000   -0.0000   -0.0000
     atom=  24, XYZ(ang) Fxyz(a.u.)=  -3.7001   16.3897   10.5493    -0.0000    0.0000    0.0000
     atom=  25, XYZ(ang) Fxyz(a.u.)=   7.3955    1.4431   10.5528     0.0000   -0.0000    0.0000
     atom=  26, XYZ(ang) Fxyz(a.u.)=   6.1562    3.6146   10.5534     0.0000    0.0000    0.0000
     atom=  27, XYZ(ang) Fxyz(a.u.)=   1.2709   12.0711   10.5521     0.0000   -0.0000   -0.0000
     atom=  28, XYZ(ang) Fxyz(a.u.)=   0.0119   14.2303   10.5521    -0.0000   -0.0000   -0.0000
     atom=  29, XYZ(ang) Fxyz(a.u.)=  -1.2313   16.3832   10.5521     0.0000   -0.0000   -0.0000
     atom=  30, XYZ(ang) Fxyz(a.u.)=   9.8649    1.4326   10.5528    -0.0000    0.0000    0.0001
     atom=  31, XYZ(ang) Fxyz(a.u.)=   8.6173    3.5891   10.5531    -0.0000    0.0000    0.0000
     atom=  32, XYZ(ang) Fxyz(a.u.)=   7.3482    5.7097   10.5523     0.0000    0.0000    0.0000
     atom=  33, XYZ(ang) Fxyz(a.u.)=   3.6795   12.0530   10.5541     0.0001   -0.0000    0.0000
     atom=  34, XYZ(ang) Fxyz(a.u.)=   2.4815   14.2140   10.5534    -0.0000   -0.0000   -0.0000
     atom=  35, XYZ(ang) Fxyz(a.u.)=   1.2384   16.3734   10.5529     0.0000   -0.0000    0.0000
     atom=  36, XYZ(ang) Fxyz(a.u.)=  12.3345    1.4228   10.5501     0.0000    0.0000    0.0000
     atom=  37, XYZ(ang) Fxyz(a.u.)=  11.0916    3.5679   10.5501    -0.0000    0.0000    0.0000
     atom=  38, XYZ(ang) Fxyz(a.u.)=   9.8479    5.7099   10.5502    -0.0000    0.0000    0.0000
     atom=  39, XYZ(ang) Fxyz(a.u.)=   8.5982    7.8744   10.5505    -0.0000   -0.0000    0.0000
     atom=  40, XYZ(ang) Fxyz(a.u.)=   6.1860   12.0536   10.5537    -0.0000   -0.0000   -0.0000
     atom=  41, XYZ(ang) Fxyz(a.u.)=   4.9337   14.2179   10.5520    -0.0000   -0.0000   -0.0000
     atom=  42, XYZ(ang) Fxyz(a.u.)=   3.7012   16.3672   10.5509    -0.0000    0.0000    0.0000
     atom=  43, XYZ(ang) Fxyz(a.u.)=  14.8041    1.4199   10.5467     0.0000   -0.0000   -0.0000
     atom=  44, XYZ(ang) Fxyz(a.u.)=  13.5671    3.5630   10.5463    -0.0000   -0.0000   -0.0000
     atom=  45, XYZ(ang) Fxyz(a.u.)=  12.3250    5.7041   10.5465    -0.0000    0.0000    0.0000
     atom=  46, XYZ(ang) Fxyz(a.u.)=  11.0694    7.8361   10.5473    -0.0000   -0.0000    0.0000
     atom=  47, XYZ(ang) Fxyz(a.u.)=   9.8165    9.9548   10.5487    -0.0000   -0.0000   -0.0000
     atom=  48, XYZ(ang) Fxyz(a.u.)=   8.5963   12.0699   10.5497    -0.0000    0.0000    0.0000
     atom=  49, XYZ(ang) Fxyz(a.u.)=   7.3864   14.2139   10.5484     0.0000   -0.0000   -0.0001
     atom=  50, XYZ(ang) Fxyz(a.u.)=   6.1677   16.3671   10.5476     0.0000    0.0000   -0.0000
     atom=  51, XYZ(ang) Fxyz(a.u.)=  17.2735    1.4232   10.5443    -0.0000    0.0000   -0.0000
     atom=  52, XYZ(ang) Fxyz(a.u.)=  16.0417    3.5633   10.5441    -0.0000   -0.0000   -0.0000
     atom=  53, XYZ(ang) Fxyz(a.u.)=  14.8044    5.7004   10.5441     0.0000    0.0000    0.0000
     atom=  54, XYZ(ang) Fxyz(a.u.)=  13.5609    7.8342   10.5441    -0.0000    0.0000    0.0000
     atom=  55, XYZ(ang) Fxyz(a.u.)=  12.3169    9.9673   10.5449    -0.0000   -0.0000   -0.0000
     atom=  56, XYZ(ang) Fxyz(a.u.)=  11.0798   12.0946   10.5457     0.0000    0.0000   -0.0000
     atom=  57, XYZ(ang) Fxyz(a.u.)=   9.8559   14.2296   10.5452    -0.0000    0.0000   -0.0000
     atom=  58, XYZ(ang) Fxyz(a.u.)=   8.6305   16.3733   10.5447    -0.0000    0.0000   -0.0000
     atom=  59, XYZ(ang) Fxyz(a.u.)=   1.2387    0.7205   10.5447     0.0000   -0.0000   -0.0000
     atom=  60, XYZ(ang) Fxyz(a.u.)=   0.0132    2.8643   10.5452     0.0000   -0.0000   -0.0000
     atom=  61, XYZ(ang) Fxyz(a.u.)=  -1.2106    4.9993   10.5457    -0.0000   -0.0000   -0.0000
     atom=  62, XYZ(ang) Fxyz(a.u.)=  -2.4477    7.1265   10.5449     0.0000    0.0000   -0.0000
     atom=  63, XYZ(ang) Fxyz(a.u.)=  -3.6918    9.2597   10.5441     0.0000   -0.0000    0.0000
     atom=  64, XYZ(ang) Fxyz(a.u.)=  -4.9352   11.3935   10.5441    -0.0000   -0.0000    0.0000
     atom=  65, XYZ(ang) Fxyz(a.u.)=  -6.1725   13.5306   10.5441     0.0000    0.0000   -0.0000
     atom=  66, XYZ(ang) Fxyz(a.u.)=  -7.4043   15.6707   10.5443     0.0000   -0.0000   -0.0000
     atom=  67, XYZ(ang) Fxyz(a.u.)=   3.7015    0.7267   10.5476    -0.0000   -0.0000   -0.0000
     atom=  68, XYZ(ang) Fxyz(a.u.)=   2.4828    2.8800   10.5484    -0.0000    0.0000   -0.0001
     atom=  69, XYZ(ang) Fxyz(a.u.)=   1.2728    5.0240   10.5497     0.0000   -0.0000    0.0000
     atom=  70, XYZ(ang) Fxyz(a.u.)=   0.0527    7.1390   10.5486     0.0000    0.0000   -0.0000
     atom=  71, XYZ(ang) Fxyz(a.u.)=  -1.2003    9.2577   10.5473     0.0000    0.0000   -0.0000
     atom=  72, XYZ(ang) Fxyz(a.u.)=  -2.4558   11.3898   10.5465     0.0000   -0.0000    0.0000
     atom=  73, XYZ(ang) Fxyz(a.u.)=  -3.6979   13.5309   10.5463     0.0000    0.0000   -0.0000
     atom=  74, XYZ(ang) Fxyz(a.u.)=  -4.9350   15.6739   10.5466    -0.0000    0.0000   -0.0000
     atom=  75, XYZ(ang) Fxyz(a.u.)=   6.1679    0.7266   10.5509     0.0000   -0.0000   -0.0000
     atom=  76, XYZ(ang) Fxyz(a.u.)=   4.9355    2.8760   10.5520     0.0000    0.0000   -0.0000
     atom=  77, XYZ(ang) Fxyz(a.u.)=   3.6832    5.0402   10.5537     0.0000    0.0000   -0.0000
     atom=  78, XYZ(ang) Fxyz(a.u.)=   1.2709    9.2194   10.5504     0.0000    0.0000    0.0000
     atom=  79, XYZ(ang) Fxyz(a.u.)=   0.0213   11.3840   10.5502     0.0000   -0.0000    0.0000
     atom=  80, XYZ(ang) Fxyz(a.u.)=  -1.2225   13.5259   10.5501     0.0000   -0.0000    0.0000
     atom=  81, XYZ(ang) Fxyz(a.u.)=  -2.4654   15.6711   10.5501    -0.0000   -0.0000    0.0000
     atom=  82, XYZ(ang) Fxyz(a.u.)=   8.6308    0.7205   10.5529    -0.0000    0.0000    0.0000
     atom=  83, XYZ(ang) Fxyz(a.u.)=   7.3876    2.8798   10.5534     0.0000    0.0000   -0.0000
     atom=  84, XYZ(ang) Fxyz(a.u.)=   6.1896    5.0409   10.5541    -0.0001    0.0000    0.0000
     atom=  85, XYZ(ang) Fxyz(a.u.)=   2.5210   11.3842   10.5523    -0.0000   -0.0000    0.0000
     atom=  86, XYZ(ang) Fxyz(a.u.)=   1.2518   13.5048   10.5531     0.0000   -0.0000    0.0000
     atom=  87, XYZ(ang) Fxyz(a.u.)=   0.0043   15.6613   10.5528     0.0000   -0.0000    0.0001
     atom=  88, XYZ(ang) Fxyz(a.u.)=  11.1005    0.7106   10.5521    -0.0000    0.0000   -0.0000
     atom=  89, XYZ(ang) Fxyz(a.u.)=   9.8572    2.8636   10.5521     0.0000    0.0000   -0.0000
     atom=  90, XYZ(ang) Fxyz(a.u.)=   8.5983    5.0228   10.5521    -0.0000    0.0000   -0.0000
     atom=  91, XYZ(ang) Fxyz(a.u.)=   3.7130   13.4793   10.5534    -0.0000   -0.0000    0.0000
     atom=  92, XYZ(ang) Fxyz(a.u.)=   2.4737   15.6508   10.5528    -0.0000    0.0000    0.0000
     atom=  93, XYZ(ang) Fxyz(a.u.)=  13.5692    0.7042   10.5493     0.0000   -0.0000    0.0000
     atom=  94, XYZ(ang) Fxyz(a.u.)=  12.3298    2.8514   10.5487     0.0000    0.0000   -0.0000
     atom=  95, XYZ(ang) Fxyz(a.u.)=  11.0820    4.9977   10.5488     0.0000   -0.0000   -0.0000
     atom=  96, XYZ(ang) Fxyz(a.u.)=   9.8185    7.1358   10.5494    -0.0000    0.0000   -0.0000
     atom=  97, XYZ(ang) Fxyz(a.u.)=   8.5985    9.2121   10.5513    -0.0000    0.0000    0.0000
     atom=  98, XYZ(ang) Fxyz(a.u.)=   7.3444   11.3851   10.5529     0.0000   -0.0000    0.0000
     atom=  99, XYZ(ang) Fxyz(a.u.)=   6.1544   13.4803   10.5518     0.0000    0.0000    0.0001
     atom= 100, XYZ(ang) Fxyz(a.u.)=   4.9343   15.6434   10.5503     0.0000    0.0000    0.0000
     atom= 101, XYZ(ang) Fxyz(a.u.)=  16.0388    0.7043   10.5460    -0.0000    0.0000    0.0000
     atom= 102, XYZ(ang) Fxyz(a.u.)=  14.8044    2.8488   10.5455     0.0000   -0.0000    0.0000
     atom= 103, XYZ(ang) Fxyz(a.u.)=  13.5648    4.9904   10.5453     0.0000   -0.0000   -0.0000
     atom= 104, XYZ(ang) Fxyz(a.u.)=  12.3179    7.1255   10.5457    -0.0000   -0.0000   -0.0000
     atom= 105, XYZ(ang) Fxyz(a.u.)=  11.0688    9.2560   10.5469    -0.0000   -0.0000    0.0000
     atom= 106, XYZ(ang) Fxyz(a.u.)=   9.8455   11.3815   10.5481    -0.0000   -0.0000    0.0000
     atom= 107, XYZ(ang) Fxyz(a.u.)=   8.6160   13.5039   10.5476    -0.0000   -0.0000    0.0000
     atom= 108, XYZ(ang) Fxyz(a.u.)=   7.3951   15.6507   10.5468    -0.0000    0.0000    0.0001
     atom= 109, XYZ(ang) Fxyz(a.u.)=  18.5075    0.7108   10.5442    -0.0000    0.0000    0.0000
     atom= 110, XYZ(ang) Fxyz(a.u.)=  17.2789    2.8520   10.5440    -0.0000   -0.0000   -0.0000
     atom= 111, XYZ(ang) Fxyz(a.u.)=  16.0443    4.9908   10.5439    -0.0000   -0.0000   -0.0000
     atom= 112, XYZ(ang) Fxyz(a.u.)=  14.8041    7.1254   10.5436    -0.0000   -0.0000   -0.0000
     atom= 113, XYZ(ang) Fxyz(a.u.)=  13.5605    9.2592   10.5440    -0.0000   -0.0000    0.0000
     atom= 114, XYZ(ang) Fxyz(a.u.)=  12.3235   11.3889   10.5448     0.0000    0.0000    0.0001
     atom= 115, XYZ(ang) Fxyz(a.u.)=  11.0902   13.5248   10.5448     0.0000    0.0000    0.0000
     atom= 116, XYZ(ang) Fxyz(a.u.)=   9.8644   15.6609   10.5444     0.0000   -0.0000    0.0000
     atom= 117, XYZ(ang) Fxyz(a.u.)=   4.9346    8.5469   12.7403    -0.0000    0.0000   -0.0000
     atom= 118, XYZ(ang) Fxyz(a.u.)=   3.9061    9.1428   12.7513     0.0001   -0.0001    0.0000
     atom= 119, XYZ(ang) Fxyz(a.u.)=   5.9630    7.9511   12.7515    -0.0001    0.0000    0.0000

outputting data on grids to files...


***********************************************************
***********************************************************
               Computational Time (second)                 
***********************************************************
***********************************************************

                               Min_ID   Min_Time       Max_ID   Max_Time
   Total Computational Time =    31    11358.781          0    11358.909
   readfile                 =    47        2.518         22        2.522
   truncation               =    32       30.527         37       35.191
   MD_pac                   =     0        1.712         17        1.878
   OutData                  =    40        0.591          0        0.676
   DFT                      =    37    11318.507         32    11323.171

*** In DFT ***

   Set_OLP_Kin              =    32       19.389         63       49.842
   Set_Nonlocal             =    63       69.475         32      100.007
   Set_ProExpn_VNA          =     4      154.616         19      165.297
   Set_Hamiltonian          =    18      663.055          5      663.066
   Poisson                  =    20       10.271          4       10.275
   Diagonalization          =     0     9794.176         18     9794.197
   Mixing_DM                =    54       94.103         46       94.109
   Force                    =    18      130.091         42      130.092
   Total_Energy             =    61       39.155          0       39.169
   Set_Aden_Grid            =    17        2.472          4       13.109
   Set_Orbitals_Grid        =    32        6.429         21       25.438
   Set_Density_Grid         =    31      246.537         54      254.165
   RestartFileDFT           =     3        2.940         32       21.237
   Mulliken_Charge          =    58        0.558         18        0.560
   FFT(2D)_Density          =     6       10.983         21       10.992
   Others                   =    57        6.348         33       20.365

The calculation was normally finished.
