
The number of threads in each node for OpenMP parallelization is 1.


*******************************************************
*******************************************************
 Welcome to OpenMX   Ver. 3.9.9                           
 Copyright (C), 2002-2019, T. Ozaki                    
 OpenMX comes with ABSOLUTELY NO WARRANTY.             
 This is free software, and you are welcome to         
 redistribute it under the constitution of the GNU-GPL.
*******************************************************
*******************************************************

Automatic determination of Kerker_factor:   3.992945286074


<Input_std>  Your input file was normally read.
<Input_std>  The system includes 2 species and 125 atoms.

*******************************************************
                     PAO and VPS                       
*******************************************************

<SetPara_DFT>  PAOs of species C were normally found.
<SetPara_DFT>  PAOs of species O were normally found.
<SetPara_DFT>  VPSs of species C were normally found.
               C_PBE19.vps is j-dependent.
               In case of scf.SpinOrbit.Coupling=off,
               j-dependent pseudo potentials are averaged by j-degeneracy,
               which corresponds to a scalar relativistic treatment.
<SetPara_DFT>  VPSs of species O were normally found.
               O_PBE19.vps is j-dependent.
               In case of scf.SpinOrbit.Coupling=off,
               j-dependent pseudo potentials are averaged by j-degeneracy,
               which corresponds to a scalar relativistic treatment.

*******************************************************
     Fourier transform of PAO and projectors of VNL    
*******************************************************

<FT_PAO>          Fourier transform of pseudo atomic orbitals
<FT_NLP>          Fourier transform of non-local projectors
<FT_ProExpn_VNA>  Fourier transform of VNA separable projectors
<FT_VNA>          Fourier transform of VNA potentials
<FT_ProductPAO>   Fourier transform of product of PAOs

*******************************************************
  Allocation of atoms to processors at MD_iter=    1     
*******************************************************

 proc =   0  # of atoms=   1  estimated weight=         1.00000
 proc =   1  # of atoms=   2  estimated weight=         2.00000
 proc =   2  # of atoms=   2  estimated weight=         2.00000
 proc =   3  # of atoms=   2  estimated weight=         2.00000
 proc =   4  # of atoms=   2  estimated weight=         2.00000
 proc =   5  # of atoms=   2  estimated weight=         2.00000
 proc =   6  # of atoms=   2  estimated weight=         2.00000
 proc =   7  # of atoms=   2  estimated weight=         2.00000
 proc =   8  # of atoms=   2  estimated weight=         2.00000
 proc =   9  # of atoms=   2  estimated weight=         2.00000
 proc =  10  # of atoms=   2  estimated weight=         2.00000
 proc =  11  # of atoms=   2  estimated weight=         2.00000
 proc =  12  # of atoms=   2  estimated weight=         2.00000
 proc =  13  # of atoms=   2  estimated weight=         2.00000
 proc =  14  # of atoms=   2  estimated weight=         2.00000
 proc =  15  # of atoms=   2  estimated weight=         2.00000
 proc =  16  # of atoms=   1  estimated weight=         1.00000
 proc =  17  # of atoms=   2  estimated weight=         2.00000
 proc =  18  # of atoms=   2  estimated weight=         2.00000
 proc =  19  # of atoms=   2  estimated weight=         2.00000
 proc =  20  # of atoms=   2  estimated weight=         2.00000
 proc =  21  # of atoms=   2  estimated weight=         2.00000
 proc =  22  # of atoms=   2  estimated weight=         2.00000
 proc =  23  # of atoms=   2  estimated weight=         2.00000
 proc =  24  # of atoms=   2  estimated weight=         2.00000
 proc =  25  # of atoms=   2  estimated weight=         2.00000
 proc =  26  # of atoms=   2  estimated weight=         2.00000
 proc =  27  # of atoms=   2  estimated weight=         2.00000
 proc =  28  # of atoms=   2  estimated weight=         2.00000
 proc =  29  # of atoms=   2  estimated weight=         2.00000
 proc =  30  # of atoms=   2  estimated weight=         2.00000
 proc =  31  # of atoms=   2  estimated weight=         2.00000
 proc =  32  # of atoms=   1  estimated weight=         1.00000
 proc =  33  # of atoms=   2  estimated weight=         2.00000
 proc =  34  # of atoms=   2  estimated weight=         2.00000
 proc =  35  # of atoms=   2  estimated weight=         2.00000
 proc =  36  # of atoms=   2  estimated weight=         2.00000
 proc =  37  # of atoms=   2  estimated weight=         2.00000
 proc =  38  # of atoms=   2  estimated weight=         2.00000
 proc =  39  # of atoms=   2  estimated weight=         2.00000
 proc =  40  # of atoms=   2  estimated weight=         2.00000
 proc =  41  # of atoms=   2  estimated weight=         2.00000
 proc =  42  # of atoms=   2  estimated weight=         2.00000
 proc =  43  # of atoms=   2  estimated weight=         2.00000
 proc =  44  # of atoms=   2  estimated weight=         2.00000
 proc =  45  # of atoms=   2  estimated weight=         2.00000
 proc =  46  # of atoms=   2  estimated weight=         2.00000
 proc =  47  # of atoms=   2  estimated weight=         2.00000
 proc =  48  # of atoms=   2  estimated weight=         2.00000
 proc =  49  # of atoms=   2  estimated weight=         2.00000
 proc =  50  # of atoms=   2  estimated weight=         2.00000
 proc =  51  # of atoms=   2  estimated weight=         2.00000
 proc =  52  # of atoms=   2  estimated weight=         2.00000
 proc =  53  # of atoms=   2  estimated weight=         2.00000
 proc =  54  # of atoms=   2  estimated weight=         2.00000
 proc =  55  # of atoms=   2  estimated weight=         2.00000
 proc =  56  # of atoms=   2  estimated weight=         2.00000
 proc =  57  # of atoms=   2  estimated weight=         2.00000
 proc =  58  # of atoms=   2  estimated weight=         2.00000
 proc =  59  # of atoms=   2  estimated weight=         2.00000
 proc =  60  # of atoms=   2  estimated weight=         2.00000
 proc =  61  # of atoms=   2  estimated weight=         2.00000
 proc =  62  # of atoms=   2  estimated weight=         2.00000
 proc =  63  # of atoms=   2  estimated weight=         2.00000




*******************************************************
        Analysis of neighbors and setting of grids        
*******************************************************

TFNAN=    5448   Average FNAN=  43.58400
TSNAN=       0   Average SNAN=   0.00000
<truncation> CpyCell= 1 ct_AN=   1 FNAN SNAN  45   0
<truncation> CpyCell= 1 ct_AN=   2 FNAN SNAN  45   0
<truncation> CpyCell= 1 ct_AN=   3 FNAN SNAN  45   0
<truncation> CpyCell= 1 ct_AN=   4 FNAN SNAN  45   0
<truncation> CpyCell= 1 ct_AN=   5 FNAN SNAN  45   0
<truncation> CpyCell= 1 ct_AN=   6 FNAN SNAN  45   0
<truncation> CpyCell= 1 ct_AN=   7 FNAN SNAN  45   0
<truncation> CpyCell= 1 ct_AN=   8 FNAN SNAN  45   0
<truncation> CpyCell= 1 ct_AN=   9 FNAN SNAN  44   0
<truncation> CpyCell= 1 ct_AN=  10 FNAN SNAN  42   0
<truncation> CpyCell= 1 ct_AN=  11 FNAN SNAN  43   0
<truncation> CpyCell= 1 ct_AN=  12 FNAN SNAN  43   0
<truncation> CpyCell= 1 ct_AN=  13 FNAN SNAN  44   0
<truncation> CpyCell= 1 ct_AN=  14 FNAN SNAN  45   0
<truncation> CpyCell= 1 ct_AN=  15 FNAN SNAN  45   0
<truncation> CpyCell= 1 ct_AN=  16 FNAN SNAN  45   0
<truncation> CpyCell= 1 ct_AN=  17 FNAN SNAN  44   0
<truncation> CpyCell= 1 ct_AN=  18 FNAN SNAN  43   0
<truncation> CpyCell= 1 ct_AN=  19 FNAN SNAN  42   0
<truncation> CpyCell= 1 ct_AN=  20 FNAN SNAN  42   0
     ..........
     ......

TFNAN=    5448   Average FNAN=  43.58400
TSNAN=       0   Average SNAN=   0.00000
<truncation> CpyCell= 2 ct_AN=   1 FNAN SNAN  45   0
<truncation> CpyCell= 2 ct_AN=   2 FNAN SNAN  45   0
<truncation> CpyCell= 2 ct_AN=   3 FNAN SNAN  45   0
<truncation> CpyCell= 2 ct_AN=   4 FNAN SNAN  45   0
<truncation> CpyCell= 2 ct_AN=   5 FNAN SNAN  45   0
<truncation> CpyCell= 2 ct_AN=   6 FNAN SNAN  45   0
<truncation> CpyCell= 2 ct_AN=   7 FNAN SNAN  45   0
<truncation> CpyCell= 2 ct_AN=   8 FNAN SNAN  45   0
<truncation> CpyCell= 2 ct_AN=   9 FNAN SNAN  44   0
<truncation> CpyCell= 2 ct_AN=  10 FNAN SNAN  42   0
<truncation> CpyCell= 2 ct_AN=  11 FNAN SNAN  43   0
<truncation> CpyCell= 2 ct_AN=  12 FNAN SNAN  43   0
<truncation> CpyCell= 2 ct_AN=  13 FNAN SNAN  44   0
<truncation> CpyCell= 2 ct_AN=  14 FNAN SNAN  45   0
<truncation> CpyCell= 2 ct_AN=  15 FNAN SNAN  45   0
<truncation> CpyCell= 2 ct_AN=  16 FNAN SNAN  45   0
<truncation> CpyCell= 2 ct_AN=  17 FNAN SNAN  44   0
<truncation> CpyCell= 2 ct_AN=  18 FNAN SNAN  43   0
<truncation> CpyCell= 2 ct_AN=  19 FNAN SNAN  42   0
<truncation> CpyCell= 2 ct_AN=  20 FNAN SNAN  42   0
     ..........
     ......

TFNAN=    5448   Average FNAN=  43.58400
TSNAN=       0   Average SNAN=   0.00000
<truncation> CpyCell= 2 ct_AN=   1 FNAN SNAN  45   0
<truncation> CpyCell= 2 ct_AN=   2 FNAN SNAN  45   0
<truncation> CpyCell= 2 ct_AN=   3 FNAN SNAN  45   0
<truncation> CpyCell= 2 ct_AN=   4 FNAN SNAN  45   0
<truncation> CpyCell= 2 ct_AN=   5 FNAN SNAN  45   0
<truncation> CpyCell= 2 ct_AN=   6 FNAN SNAN  45   0
<truncation> CpyCell= 2 ct_AN=   7 FNAN SNAN  45   0
<truncation> CpyCell= 2 ct_AN=   8 FNAN SNAN  45   0
<truncation> CpyCell= 2 ct_AN=   9 FNAN SNAN  44   0
<truncation> CpyCell= 2 ct_AN=  10 FNAN SNAN  42   0
<truncation> CpyCell= 2 ct_AN=  11 FNAN SNAN  43   0
<truncation> CpyCell= 2 ct_AN=  12 FNAN SNAN  43   0
<truncation> CpyCell= 2 ct_AN=  13 FNAN SNAN  44   0
<truncation> CpyCell= 2 ct_AN=  14 FNAN SNAN  45   0
<truncation> CpyCell= 2 ct_AN=  15 FNAN SNAN  45   0
<truncation> CpyCell= 2 ct_AN=  16 FNAN SNAN  45   0
<truncation> CpyCell= 2 ct_AN=  17 FNAN SNAN  44   0
<truncation> CpyCell= 2 ct_AN=  18 FNAN SNAN  43   0
<truncation> CpyCell= 2 ct_AN=  19 FNAN SNAN  42   0
<truncation> CpyCell= 2 ct_AN=  20 FNAN SNAN  42   0
     ..........
     ......

<Check_System> The system is slab.
lattice vectors (bohr)
A  = 37.299978480367,  0.000000000000,  0.000000000000
B  = -18.649989240184, 32.302728872609,  0.000000000000
C  =  0.000000000000,  0.000000000000, 39.684245760157
reciprocal lattice vectors (bohr^-1)
RA =  0.168450105420,  0.097254713866, -0.000000000000
RB =  0.000000000000,  0.194509427732,  0.000000000000
RC =  0.000000000000, -0.000000000000,  0.158329462658
Grid_Origin  0.051805527179  0.089729835683  0.227921815118
Cell_Volume =  47815.194201431834 (Bohr^3)
GridVol     =      0.006832303698 (Bohr^3)
Grid_Origin  0.051805527179  0.089729835683  0.227921815118
Cell_Volume =  47815.194201431834 (Bohr^3)
GridVol     =      0.006832303698 (Bohr^3)
<UCell_Box> Info. of cutoff energy and num. of grids
lattice vectors (bohr)
A  = 37.299978480367,  0.000000000000,  0.000000000000
B  = -18.649989240184, 32.302728872609,  0.000000000000
C  =  0.000000000000,  0.000000000000, 39.684245760157
reciprocal lattice vectors (bohr^-1)
RA =  0.168450105420,  0.097254713866, -0.000000000000
RB =  0.000000000000,  0.194509427732,  0.000000000000
RC =  0.000000000000, -0.000000000000,  0.158329462658
Required cutoff energy (Ryd) for 3D-grids = 300.0000
    Used cutoff energy (Ryd) for 3D-grids = 306.4547, 306.4547, 292.3957
Num. of grids of a-, b-, and c-axes = 180, 180, 216
Grid_Origin  0.051805527179  0.089729835683  0.227921815118
Cell_Volume =  47815.194201431834 (Bohr^3)
GridVol     =      0.006832303698 (Bohr^3)
Cell vectors (bohr) of the grid cell (gtv)
  gtv_a =  0.207222102669,  0.000000000000,  0.000000000000
  gtv_b = -0.103611051334,  0.179459604848,  0.000000000000
  gtv_c =  0.000000000000,  0.000000000000,  0.183723360001
  |gtv_a| =  0.207222102669
  |gtv_b| =  0.207222102419
  |gtv_c| =  0.183723360001
Num. of grids overlapping with atom    1 = 132381
Num. of grids overlapping with atom    2 = 132474
Num. of grids overlapping with atom    3 = 132384
Num. of grids overlapping with atom    4 = 132478
Num. of grids overlapping with atom    5 = 132381
Num. of grids overlapping with atom    6 = 132475
Num. of grids overlapping with atom    7 = 132378
Num. of grids overlapping with atom    8 = 132472
Num. of grids overlapping with atom    9 = 132379
Num. of grids overlapping with atom   10 = 132400
Num. of grids overlapping with atom   11 = 132392
Num. of grids overlapping with atom   12 = 132364
Num. of grids overlapping with atom   13 = 132407
Num. of grids overlapping with atom   14 = 132378
Num. of grids overlapping with atom   15 = 132376
Num. of grids overlapping with atom   16 = 132376
Num. of grids overlapping with atom   17 = 132379
Num. of grids overlapping with atom   18 = 132456
Num. of grids overlapping with atom   19 = 132427
Num. of grids overlapping with atom   20 = 132425
     ..........
     ......


*******************************************************
             SCF calculation at MD = 1                
*******************************************************

<MD= 1>  Calculation of the overlap matrix
<MD= 1>  Calculation of the nonlocal matrix
<MD= 1>  Calculation of the VNA projector matrix

******************* MD= 1  SCF= 1 *******************
<Band>  Solving the eigenvalue problem...
 KGrids1:  -0.43750  -0.31250  -0.18750  -0.06250   0.06250   0.18750   0.31250   0.43750 
 KGrids2:  -0.43750  -0.31250  -0.18750  -0.06250   0.06250   0.18750   0.31250   0.43750 
 KGrids3:   0.00000 
<Band_DFT>  Eigen, time=20.419943
<Band_DFT>  DM, time=0.000013
    1    C  MulP   1.9957  1.9957 sum   3.9913
    2    C  MulP   1.9929  1.9929 sum   3.9859
    3    C  MulP   1.9932  1.9932 sum   3.9864
    4    C  MulP   1.9955  1.9955 sum   3.9910
    5    C  MulP   1.9896  1.9896 sum   3.9792
    6    C  MulP   1.9954  1.9954 sum   3.9908
    7    C  MulP   1.9956  1.9956 sum   3.9912
    8    C  MulP   1.9894  1.9894 sum   3.9787
    9    C  MulP   1.9943  1.9943 sum   3.9886
   10    C  MulP   1.9883  1.9883 sum   3.9767
   11    C  MulP   1.9983  1.9983 sum   3.9966
   12    C  MulP   1.9883  1.9883 sum   3.9767
   13    C  MulP   1.9944  1.9944 sum   3.9887
   14    C  MulP   1.9956  1.9956 sum   3.9912
   15    C  MulP   1.9897  1.9897 sum   3.9793
   16    C  MulP   1.9956  1.9956 sum   3.9912
   17    C  MulP   1.9880  1.9880 sum   3.9759
   18    C  MulP   1.9890  1.9890 sum   3.9781
   19    C  MulP   1.9885  1.9885 sum   3.9771
   20    C  MulP   1.9879  1.9879 sum   3.9757
     ..........
     ......

 Sum of MulP: up   =   252.00000 down          =   252.00000
              total=   504.00000 ideal(neutral)=   504.00000
<DFT>  Total Spin Moment (muB) =  0.000000000000
<DFT>  Mixing_weight= 0.050000000000
<DFT>  Uele   = -205.659085323594  dUele     =   1.000000000000
<DFT>  NormRD =    1.000000000000  Criterion =   0.000000010000

******************* MD= 1  SCF= 2 *******************
<Poisson>  Poisson's equation using FFT...
<Set_Hamiltonian>  Hamiltonian matrix for VNA+dVH+Vxc...
<Band>  Solving the eigenvalue problem...
 KGrids1:  -0.43750  -0.31250  -0.18750  -0.06250   0.06250   0.18750   0.31250   0.43750 
 KGrids2:  -0.43750  -0.31250  -0.18750  -0.06250   0.06250   0.18750   0.31250   0.43750 
 KGrids3:   0.00000 
<Band_DFT>  Eigen, time=11.962436
<Band_DFT>  DM, time=0.000001
    1    C  MulP   1.9957  1.9957 sum   3.9913
    2    C  MulP   1.9929  1.9929 sum   3.9859
    3    C  MulP   1.9932  1.9932 sum   3.9864
    4    C  MulP   1.9955  1.9955 sum   3.9910
    5    C  MulP   1.9896  1.9896 sum   3.9792
    6    C  MulP   1.9954  1.9954 sum   3.9908
    7    C  MulP   1.9956  1.9956 sum   3.9912
    8    C  MulP   1.9894  1.9894 sum   3.9787
    9    C  MulP   1.9943  1.9943 sum   3.9886
   10    C  MulP   1.9883  1.9883 sum   3.9767
   11    C  MulP   1.9983  1.9983 sum   3.9966
   12    C  MulP   1.9883  1.9883 sum   3.9767
   13    C  MulP   1.9944  1.9944 sum   3.9887
   14    C  MulP   1.9956  1.9956 sum   3.9912
   15    C  MulP   1.9897  1.9897 sum   3.9793
   16    C  MulP   1.9956  1.9956 sum   3.9912
   17    C  MulP   1.9880  1.9880 sum   3.9759
   18    C  MulP   1.9890  1.9890 sum   3.9781
   19    C  MulP   1.9885  1.9885 sum   3.9771
   20    C  MulP   1.9879  1.9879 sum   3.9757
     ..........
     ......

 Sum of MulP: up   =   252.00000 down          =   252.00000
              total=   504.00000 ideal(neutral)=   504.00000
<DFT>  Total Spin Moment (muB) =  0.000000000000
<DFT>  Mixing_weight= 0.010000000000
<DFT>  Uele   = -205.659085323594  dUele     =   0.000000000000
<DFT>  NormRD =   10.142057325806  Criterion =   0.000000010000

******************* MD= 1  SCF= 3 *******************
<Poisson>  Poisson's equation using FFT...
<Set_Hamiltonian>  Hamiltonian matrix for VNA+dVH+Vxc...
<Band>  Solving the eigenvalue problem...
 KGrids1:  -0.43750  -0.31250  -0.18750  -0.06250   0.06250   0.18750   0.31250   0.43750 
 KGrids2:  -0.43750  -0.31250  -0.18750  -0.06250   0.06250   0.18750   0.31250   0.43750 
 KGrids3:   0.00000 
<Band_DFT>  Eigen, time=11.924525
<Band_DFT>  DM, time=0.000001
    1    C  MulP   1.9958  1.9958 sum   3.9916
    2    C  MulP   1.9932  1.9932 sum   3.9864
    3    C  MulP   1.9935  1.9935 sum   3.9869
    4    C  MulP   1.9956  1.9956 sum   3.9913
    5    C  MulP   1.9900  1.9900 sum   3.9800
    6    C  MulP   1.9955  1.9955 sum   3.9910
    7    C  MulP   1.9957  1.9957 sum   3.9915
    8    C  MulP   1.9898  1.9898 sum   3.9796
    9    C  MulP   1.9945  1.9945 sum   3.9890
   10    C  MulP   1.9888  1.9888 sum   3.9776
   11    C  MulP   1.9984  1.9984 sum   3.9968
   12    C  MulP   1.9888  1.9888 sum   3.9776
   13    C  MulP   1.9945  1.9945 sum   3.9891
   14    C  MulP   1.9957  1.9957 sum   3.9914
   15    C  MulP   1.9901  1.9901 sum   3.9801
   16    C  MulP   1.9957  1.9957 sum   3.9915
   17    C  MulP   1.9884  1.9884 sum   3.9768
   18    C  MulP   1.9894  1.9894 sum   3.9789
   19    C  MulP   1.9885  1.9885 sum   3.9771
   20    C  MulP   1.9878  1.9878 sum   3.9756
     ..........
     ......

 Sum of MulP: up   =   252.00000 down          =   252.00000
              total=   504.00000 ideal(neutral)=   504.00000
<DFT>  Total Spin Moment (muB) =  0.000000000000
<DFT>  Mixing_weight= 0.300000000000
<DFT>  Uele   = -206.059838314103  dUele     =   0.400752990508
<DFT>  NormRD =   10.015859212293  Criterion =   0.000000010000

******************* MD= 1  SCF= 4 *******************
<Poisson>  Poisson's equation using FFT...
<Set_Hamiltonian>  Hamiltonian matrix for VNA+dVH+Vxc...
<Band>  Solving the eigenvalue problem...
 KGrids1:  -0.43750  -0.31250  -0.18750  -0.06250   0.06250   0.18750   0.31250   0.43750 
 KGrids2:  -0.43750  -0.31250  -0.18750  -0.06250   0.06250   0.18750   0.31250   0.43750 
 KGrids3:   0.00000 
<Band_DFT>  Eigen, time=11.954633
<Band_DFT>  DM, time=0.000001
    1    C  MulP   2.0012  2.0012 sum   4.0024
    2    C  MulP   2.0028  2.0028 sum   4.0057
    3    C  MulP   2.0029  2.0029 sum   4.0058
    4    C  MulP   2.0010  2.0010 sum   4.0020
    5    C  MulP   2.0032  2.0032 sum   4.0064
    6    C  MulP   2.0001  2.0001 sum   4.0002
    7    C  MulP   2.0003  2.0003 sum   4.0007
    8    C  MulP   2.0032  2.0032 sum   4.0063
    9    C  MulP   2.0016  2.0016 sum   4.0032
   10    C  MulP   2.0047  2.0047 sum   4.0094
   11    C  MulP   2.0000  2.0000 sum   4.0000
   12    C  MulP   2.0042  2.0042 sum   4.0085
   13    C  MulP   2.0013  2.0013 sum   4.0025
   14    C  MulP   2.0003  2.0003 sum   4.0005
   15    C  MulP   2.0028  2.0028 sum   4.0056
   16    C  MulP   2.0003  2.0003 sum   4.0006
   17    C  MulP   2.0024  2.0024 sum   4.0049
   18    C  MulP   1.9998  1.9998 sum   3.9996
   19    C  MulP   1.9883  1.9883 sum   3.9765
   20    C  MulP   1.9853  1.9853 sum   3.9705
     ..........
     ......

 Sum of MulP: up   =   252.00000 down          =   252.00000
              total=   504.00000 ideal(neutral)=   504.00000
<DFT>  Total Spin Moment (muB) =  0.000000000000
<DFT>  Mixing_weight= 0.300000000000
<DFT>  Uele   = -217.981117382475  dUele     =  11.921279068372
<DFT>  NormRD =    6.477939330623  Criterion =   0.000000010000

******************* MD= 1  SCF= 5 *******************
<Poisson>  Poisson's equation using FFT...
<Set_Hamiltonian>  Hamiltonian matrix for VNA+dVH+Vxc...
<Band>  Solving the eigenvalue problem...
 KGrids1:  -0.43750  -0.31250  -0.18750  -0.06250   0.06250   0.18750   0.31250   0.43750 
 KGrids2:  -0.43750  -0.31250  -0.18750  -0.06250   0.06250   0.18750   0.31250   0.43750 
 KGrids3:   0.00000 
<Band_DFT>  Eigen, time=11.921597
<Band_DFT>  DM, time=0.000001
    1    C  MulP   1.9963  1.9963 sum   3.9927
    2    C  MulP   1.9934  1.9934 sum   3.9868
    3    C  MulP   1.9938  1.9938 sum   3.9875
    4    C  MulP   1.9961  1.9961 sum   3.9922
    5    C  MulP   1.9930  1.9930 sum   3.9860
    6    C  MulP   1.9965  1.9965 sum   3.9930
    7    C  MulP   1.9967  1.9967 sum   3.9934
    8    C  MulP   1.9927  1.9927 sum   3.9853
    9    C  MulP   1.9961  1.9961 sum   3.9922
   10    C  MulP   1.9912  1.9912 sum   3.9824
   11    C  MulP   1.9934  1.9934 sum   3.9869
   12    C  MulP   1.9916  1.9916 sum   3.9832
   13    C  MulP   1.9968  1.9968 sum   3.9936
   14    C  MulP   1.9967  1.9967 sum   3.9935
   15    C  MulP   1.9928  1.9928 sum   3.9857
   16    C  MulP   1.9967  1.9967 sum   3.9934
   17    C  MulP   1.9915  1.9915 sum   3.9830
   18    C  MulP   1.9953  1.9953 sum   3.9906
   19    C  MulP   1.9792  1.9792 sum   3.9585
   20    C  MulP   1.9812  1.9812 sum   3.9623
     ..........
     ......

 Sum of MulP: up   =   252.00000 down          =   252.00000
              total=   504.00000 ideal(neutral)=   504.00000
<DFT>  Total Spin Moment (muB) =  0.000000000000
<DFT>  Mixing_weight= 0.300000000000
<DFT>  Uele   = -225.408636953990  dUele     =   7.427519571515
<DFT>  NormRD =    4.413748027088  Criterion =   0.000000010000

******************* MD= 1  SCF= 6 *******************
<Poisson>  Poisson's equation using FFT...
<Set_Hamiltonian>  Hamiltonian matrix for VNA+dVH+Vxc...
<Band>  Solving the eigenvalue problem...
 KGrids1:  -0.43750  -0.31250  -0.18750  -0.06250   0.06250   0.18750   0.31250   0.43750 
 KGrids2:  -0.43750  -0.31250  -0.18750  -0.06250   0.06250   0.18750   0.31250   0.43750 
 KGrids3:   0.00000 
<Band_DFT>  Eigen, time=11.902175
<Band_DFT>  DM, time=0.000000
    1    C  MulP   2.0006  2.0006 sum   4.0012
    2    C  MulP   2.0013  2.0013 sum   4.0027
    3    C  MulP   2.0011  2.0011 sum   4.0022
    4    C  MulP   2.0007  2.0007 sum   4.0014
    5    C  MulP   2.0017  2.0017 sum   4.0034
    6    C  MulP   1.9997  1.9997 sum   3.9994
    7    C  MulP   2.0000  2.0000 sum   4.0000
    8    C  MulP   2.0021  2.0021 sum   4.0041
    9    C  MulP   2.0015  2.0015 sum   4.0031
   10    C  MulP   2.0041  2.0041 sum   4.0082
   11    C  MulP   1.9976  1.9976 sum   3.9951
   12    C  MulP   2.0023  2.0023 sum   4.0046
   13    C  MulP   2.0003  2.0003 sum   4.0006
   14    C  MulP   1.9999  1.9999 sum   3.9998
   15    C  MulP   2.0015  2.0015 sum   4.0030
   16    C  MulP   2.0000  2.0000 sum   4.0000
   17    C  MulP   2.0017  2.0017 sum   4.0034
   18    C  MulP   2.0072  2.0072 sum   4.0145
   19    C  MulP   1.9908  1.9908 sum   3.9817
   20    C  MulP   1.9805  1.9805 sum   3.9610
     ..........
     ......

 Sum of MulP: up   =   252.00000 down          =   252.00000
              total=   504.00000 ideal(neutral)=   504.00000
<DFT>  Total Spin Moment (muB) =  0.000000000000
<DFT>  Mixing_weight= 0.300000000000
<DFT>  Uele   = -230.569577016212  dUele     =   5.160940062221
<DFT>  NormRD =    3.257727154298  Criterion =   0.000000010000

******************* MD= 1  SCF= 7 *******************
<Poisson>  Poisson's equation using FFT...
<Set_Hamiltonian>  Hamiltonian matrix for VNA+dVH+Vxc...
<Band>  Solving the eigenvalue problem...
 KGrids1:  -0.43750  -0.31250  -0.18750  -0.06250   0.06250   0.18750   0.31250   0.43750 
 KGrids2:  -0.43750  -0.31250  -0.18750  -0.06250   0.06250   0.18750   0.31250   0.43750 
 KGrids3:   0.00000 
<Band_DFT>  Eigen, time=11.928718
<Band_DFT>  DM, time=0.000000
    1    C  MulP   1.9980  1.9980 sum   3.9959
    2    C  MulP   1.9957  1.9957 sum   3.9915
    3    C  MulP   1.9971  1.9971 sum   3.9941
    4    C  MulP   1.9971  1.9971 sum   3.9941
    5    C  MulP   1.9955  1.9955 sum   3.9910
    6    C  MulP   1.9977  1.9977 sum   3.9954
    7    C  MulP   1.9979  1.9979 sum   3.9957
    8    C  MulP   1.9946  1.9946 sum   3.9893
    9    C  MulP   1.9973  1.9973 sum   3.9947
   10    C  MulP   1.9924  1.9924 sum   3.9847
   11    C  MulP   1.9970  1.9970 sum   3.9940
   12    C  MulP   1.9954  1.9954 sum   3.9909
   13    C  MulP   1.9988  1.9988 sum   3.9976
   14    C  MulP   1.9980  1.9980 sum   3.9959
   15    C  MulP   1.9951  1.9951 sum   3.9902
   16    C  MulP   1.9978  1.9978 sum   3.9957
   17    C  MulP   1.9933  1.9933 sum   3.9867
   18    C  MulP   1.9880  1.9880 sum   3.9760
   19    C  MulP   1.9711  1.9711 sum   3.9422
   20    C  MulP   1.9908  1.9908 sum   3.9816
     ..........
     ......

 Sum of MulP: up   =   252.00000 down          =   252.00000
              total=   504.00000 ideal(neutral)=   504.00000
<DFT>  Total Spin Moment (muB) =  0.000000000000
<DFT>  Mixing_weight= 0.300000000000
<DFT>  Uele   = -233.723957424467  dUele     =   3.154380408255
<DFT>  NormRD =    2.789862099970  Criterion =   0.000000010000

******************* MD= 1  SCF= 8 *******************
<Poisson>  Poisson's equation using FFT...
<Set_Hamiltonian>  Hamiltonian matrix for VNA+dVH+Vxc...
<Band>  Solving the eigenvalue problem...
 KGrids1:  -0.43750  -0.31250  -0.18750  -0.06250   0.06250   0.18750   0.31250   0.43750 
 KGrids2:  -0.43750  -0.31250  -0.18750  -0.06250   0.06250   0.18750   0.31250   0.43750 
 KGrids3:   0.00000 
<Band_DFT>  Eigen, time=11.921339
<Band_DFT>  DM, time=0.000000
    1    C  MulP   1.9995  1.9995 sum   3.9990
    2    C  MulP   1.9998  1.9998 sum   3.9995
    3    C  MulP   1.9982  1.9982 sum   3.9964
    4    C  MulP   2.0002  2.0002 sum   4.0004
    5    C  MulP   1.9990  1.9990 sum   3.9980
    6    C  MulP   1.9990  1.9990 sum   3.9980
    7    C  MulP   1.9994  1.9994 sum   3.9988
    8    C  MulP   1.9998  1.9998 sum   3.9996
    9    C  MulP   2.0010  2.0010 sum   4.0019
   10    C  MulP   2.0027  2.0027 sum   4.0053
   11    C  MulP   1.9962  1.9962 sum   3.9924
   12    C  MulP   1.9980  1.9980 sum   3.9959
   13    C  MulP   1.9990  1.9990 sum   3.9980
   14    C  MulP   1.9993  1.9993 sum   3.9985
   15    C  MulP   1.9991  1.9991 sum   3.9983
   16    C  MulP   1.9994  1.9994 sum   3.9989
   17    C  MulP   1.9999  1.9999 sum   3.9998
   18    C  MulP   2.0143  2.0143 sum   4.0287
   19    C  MulP   1.9997  1.9997 sum   3.9994
   20    C  MulP   1.9728  1.9728 sum   3.9456
     ..........
     ......

 Sum of MulP: up   =   252.00000 down          =   252.00000
              total=   504.00000 ideal(neutral)=   504.00000
<DFT>  Total Spin Moment (muB) =  0.000000000000
<DFT>  Mixing_weight= 0.145385528994
<DFT>  Uele   = -236.053634241789  dUele     =   2.329676817322
<DFT>  NormRD =    2.877048718118  Criterion =   0.000000010000

******************* MD= 1  SCF= 9 *******************
<Poisson>  Poisson's equation using FFT...
<Set_Hamiltonian>  Hamiltonian matrix for VNA+dVH+Vxc...
<Band>  Solving the eigenvalue problem...
 KGrids1:  -0.43750  -0.31250  -0.18750  -0.06250   0.06250   0.18750   0.31250   0.43750 
 KGrids2:  -0.43750  -0.31250  -0.18750  -0.06250   0.06250   0.18750   0.31250   0.43750 
 KGrids3:   0.00000 
<Band_DFT>  Eigen, time=11.932279
<Band_DFT>  DM, time=0.000000
    1    C  MulP   2.0011  2.0011 sum   4.0022
    2    C  MulP   2.0022  2.0022 sum   4.0044
    3    C  MulP   2.0025  2.0025 sum   4.0050
    4    C  MulP   2.0007  2.0007 sum   4.0014
    5    C  MulP   2.0031  2.0031 sum   4.0062
    6    C  MulP   2.0007  2.0007 sum   4.0015
    7    C  MulP   2.0009  2.0009 sum   4.0018
    8    C  MulP   2.0027  2.0027 sum   4.0054
    9    C  MulP   2.0016  2.0016 sum   4.0033
   10    C  MulP   2.0022  2.0022 sum   4.0045
   11    C  MulP   1.9986  1.9986 sum   3.9972
   12    C  MulP   2.0026  2.0026 sum   4.0052
   13    C  MulP   2.0018  2.0018 sum   4.0035
   14    C  MulP   2.0009  2.0009 sum   4.0018
   15    C  MulP   2.0027  2.0027 sum   4.0054
   16    C  MulP   2.0009  2.0009 sum   4.0018
   17    C  MulP   2.0025  2.0025 sum   4.0049
   18    C  MulP   1.9978  1.9978 sum   3.9956
   19    C  MulP   1.9769  1.9769 sum   3.9538
   20    C  MulP   1.9811  1.9811 sum   3.9623
     ..........
     ......

 Sum of MulP: up   =   252.00000 down          =   252.00000
              total=   504.00000 ideal(neutral)=   504.00000
<DFT>  Total Spin Moment (muB) =  0.000000000000
<DFT>  Mixing_weight= 0.193886445380
<DFT>  Uele   = -236.710822707648  dUele     =   0.657188465859
<DFT>  NormRD =    1.438959145987  Criterion =   0.000000010000

******************* MD= 1  SCF=10 *******************
<Poisson>  Poisson's equation using FFT...
<Set_Hamiltonian>  Hamiltonian matrix for VNA+dVH+Vxc...
<Band>  Solving the eigenvalue problem...
 KGrids1:  -0.43750  -0.31250  -0.18750  -0.06250   0.06250   0.18750   0.31250   0.43750 
 KGrids2:  -0.43750  -0.31250  -0.18750  -0.06250   0.06250   0.18750   0.31250   0.43750 
 KGrids3:   0.00000 
<Band_DFT>  Eigen, time=11.920334
<Band_DFT>  DM, time=0.000002
    1    C  MulP   1.9990  1.9990 sum   3.9979
    2    C  MulP   1.9970  1.9970 sum   3.9939
    3    C  MulP   1.9970  1.9970 sum   3.9940
    4    C  MulP   1.9988  1.9988 sum   3.9976
    5    C  MulP   1.9979  1.9979 sum   3.9958
    6    C  MulP   1.9988  1.9988 sum   3.9975
    7    C  MulP   1.9990  1.9990 sum   3.9980
    8    C  MulP   1.9979  1.9979 sum   3.9957
    9    C  MulP   1.9990  1.9990 sum   3.9981
   10    C  MulP   1.9984  1.9984 sum   3.9968
   11    C  MulP   1.9936  1.9936 sum   3.9872
   12    C  MulP   1.9977  1.9977 sum   3.9954
   13    C  MulP   1.9984  1.9984 sum   3.9968
   14    C  MulP   1.9990  1.9990 sum   3.9979
   15    C  MulP   1.9978  1.9978 sum   3.9957
   16    C  MulP   1.9990  1.9990 sum   3.9980
   17    C  MulP   1.9971  1.9971 sum   3.9943
   18    C  MulP   1.9983  1.9983 sum   3.9966
   19    C  MulP   1.9862  1.9862 sum   3.9724
   20    C  MulP   1.9819  1.9819 sum   3.9637
     ..........
     ......

 Sum of MulP: up   =   252.00000 down          =   252.00000
              total=   504.00000 ideal(neutral)=   504.00000
<DFT>  Total Spin Moment (muB) =  0.000000000000
<DFT>  Mixing_weight= 0.300000000000
<DFT>  Uele   = -237.499028633565  dUele     =   0.788205925917
<DFT>  NormRD =    1.292817276183  Criterion =   0.000000010000

******************* MD= 1  SCF=11 *******************
<Poisson>  Poisson's equation using FFT...
<Set_Hamiltonian>  Hamiltonian matrix for VNA+dVH+Vxc...
<Band>  Solving the eigenvalue problem...
 KGrids1:  -0.43750  -0.31250  -0.18750  -0.06250   0.06250   0.18750   0.31250   0.43750 
 KGrids2:  -0.43750  -0.31250  -0.18750  -0.06250   0.06250   0.18750   0.31250   0.43750 
 KGrids3:   0.00000 
<Band_DFT>  Eigen, time=11.917363
<Band_DFT>  DM, time=0.000000
    1    C  MulP   1.9991  1.9991 sum   3.9982
    2    C  MulP   1.9994  1.9994 sum   3.9987
    3    C  MulP   2.0001  2.0001 sum   4.0003
    4    C  MulP   1.9986  1.9986 sum   3.9971
    5    C  MulP   1.9984  1.9984 sum   3.9968
    6    C  MulP   1.9989  1.9989 sum   3.9978
    7    C  MulP   1.9990  1.9990 sum   3.9981
    8    C  MulP   1.9978  1.9978 sum   3.9957
    9    C  MulP   1.9997  1.9997 sum   3.9995
   10    C  MulP   1.9956  1.9956 sum   3.9912
   11    C  MulP   2.0003  2.0003 sum   4.0006
   12    C  MulP   1.9969  1.9969 sum   3.9939
   13    C  MulP   2.0005  2.0005 sum   4.0010
   14    C  MulP   1.9991  1.9991 sum   3.9981
   15    C  MulP   1.9981  1.9981 sum   3.9963
   16    C  MulP   1.9990  1.9990 sum   3.9980
   17    C  MulP   1.9974  1.9974 sum   3.9948
   18    C  MulP   1.9999  1.9999 sum   3.9999
   19    C  MulP   1.9702  1.9702 sum   3.9403
   20    C  MulP   1.9775  1.9775 sum   3.9550
     ..........
     ......

 Sum of MulP: up   =   252.00000 down          =   252.00000
              total=   504.00000 ideal(neutral)=   504.00000
<DFT>  Total Spin Moment (muB) =  0.000000000000
<DFT>  Mixing_weight= 0.099931079024
<DFT>  Uele   = -238.701280209822  dUele     =   1.202251576257
<DFT>  NormRD =    1.829265204827  Criterion =   0.000000010000

******************* MD= 1  SCF=12 *******************
<Poisson>  Poisson's equation using FFT...
<Set_Hamiltonian>  Hamiltonian matrix for VNA+dVH+Vxc...
<Band>  Solving the eigenvalue problem...
 KGrids1:  -0.43750  -0.31250  -0.18750  -0.06250   0.06250   0.18750   0.31250   0.43750 
 KGrids2:  -0.43750  -0.31250  -0.18750  -0.06250   0.06250   0.18750   0.31250   0.43750 
 KGrids3:   0.00000 
<Band_DFT>  Eigen, time=11.904621
<Band_DFT>  DM, time=0.000001
    1    C  MulP   2.0005  2.0005 sum   4.0009
    2    C  MulP   2.0006  2.0006 sum   4.0012
    3    C  MulP   2.0008  2.0008 sum   4.0016
    4    C  MulP   2.0002  2.0002 sum   4.0004
    5    C  MulP   2.0015  2.0015 sum   4.0030
    6    C  MulP   2.0001  2.0001 sum   4.0002
    7    C  MulP   2.0003  2.0003 sum   4.0007
    8    C  MulP   2.0012  2.0012 sum   4.0024
    9    C  MulP   2.0006  2.0006 sum   4.0012
   10    C  MulP   2.0014  2.0014 sum   4.0028
   11    C  MulP   1.9970  1.9970 sum   3.9940
   12    C  MulP   2.0015  2.0015 sum   4.0031
   13    C  MulP   2.0011  2.0011 sum   4.0021
   14    C  MulP   2.0003  2.0003 sum   4.0007
   15    C  MulP   2.0012  2.0012 sum   4.0024
   16    C  MulP   2.0003  2.0003 sum   4.0006
   17    C  MulP   2.0007  2.0007 sum   4.0015
   18    C  MulP   1.9961  1.9961 sum   3.9922
   19    C  MulP   1.9809  1.9809 sum   3.9619
   20    C  MulP   1.9819  1.9819 sum   3.9639
     ..........
     ......

 Sum of MulP: up   =   252.00000 down          =   252.00000
              total=   504.00000 ideal(neutral)=   504.00000
<DFT>  Total Spin Moment (muB) =  0.000000000000
<DFT>  Mixing_weight= 0.122998777104
<DFT>  Uele   = -238.947952769683  dUele     =   0.246672559861
<DFT>  NormRD =    0.792188267414  Criterion =   0.000000010000

******************* MD= 1  SCF=13 *******************
<Poisson>  Poisson's equation using FFT...
<Set_Hamiltonian>  Hamiltonian matrix for VNA+dVH+Vxc...
<Band>  Solving the eigenvalue problem...
 KGrids1:  -0.43750  -0.31250  -0.18750  -0.06250   0.06250   0.18750   0.31250   0.43750 
 KGrids2:  -0.43750  -0.31250  -0.18750  -0.06250   0.06250   0.18750   0.31250   0.43750 
 KGrids3:   0.00000 
<Band_DFT>  Eigen, time=11.912440
<Band_DFT>  DM, time=0.000000
    1    C  MulP   1.9997  1.9997 sum   3.9994
    2    C  MulP   1.9992  1.9992 sum   3.9985
    3    C  MulP   1.9992  1.9992 sum   3.9984
    4    C  MulP   1.9995  1.9995 sum   3.9991
    5    C  MulP   1.9998  1.9998 sum   3.9996
    6    C  MulP   1.9995  1.9995 sum   3.9990
    7    C  MulP   1.9997  1.9997 sum   3.9995
    8    C  MulP   1.9997  1.9997 sum   3.9995
    9    C  MulP   2.0002  2.0002 sum   4.0004
   10    C  MulP   1.9998  1.9998 sum   3.9997
   11    C  MulP   1.9962  1.9962 sum   3.9923
   12    C  MulP   1.9992  1.9992 sum   3.9985
   13    C  MulP   1.9998  1.9998 sum   3.9996
   14    C  MulP   1.9997  1.9997 sum   3.9994
   15    C  MulP   1.9997  1.9997 sum   3.9994
   16    C  MulP   1.9997  1.9997 sum   3.9995
   17    C  MulP   1.9993  1.9993 sum   3.9986
   18    C  MulP   2.0008  2.0008 sum   4.0016
   19    C  MulP   1.9829  1.9829 sum   3.9659
   20    C  MulP   1.9789  1.9789 sum   3.9578
     ..........
     ......

 Sum of MulP: up   =   252.00000 down          =   252.00000
              total=   504.00000 ideal(neutral)=   504.00000
<DFT>  Total Spin Moment (muB) =  0.000000000000
<DFT>  Mixing_weight= 0.300000000000
<DFT>  Uele   = -239.232520286772  dUele     =   0.284567517089
<DFT>  NormRD =    0.622249941919  Criterion =   0.000000010000

******************* MD= 1  SCF=14 *******************
<Poisson>  Poisson's equation using FFT...
<Set_Hamiltonian>  Hamiltonian matrix for VNA+dVH+Vxc...
<Band>  Solving the eigenvalue problem...
 KGrids1:  -0.43750  -0.31250  -0.18750  -0.06250   0.06250   0.18750   0.31250   0.43750 
 KGrids2:  -0.43750  -0.31250  -0.18750  -0.06250   0.06250   0.18750   0.31250   0.43750 
 KGrids3:   0.00000 
<Band_DFT>  Eigen, time=11.922807
<Band_DFT>  DM, time=0.000001
    1    C  MulP   1.9987  1.9987 sum   3.9974
    2    C  MulP   1.9969  1.9969 sum   3.9939
    3    C  MulP   1.9975  1.9975 sum   3.9950
    4    C  MulP   1.9983  1.9983 sum   3.9967
    5    C  MulP   1.9970  1.9970 sum   3.9941
    6    C  MulP   1.9985  1.9985 sum   3.9969
    7    C  MulP   1.9986  1.9986 sum   3.9972
    8    C  MulP   1.9965  1.9965 sum   3.9931
    9    C  MulP   1.9983  1.9983 sum   3.9966
   10    C  MulP   1.9960  1.9960 sum   3.9919
   11    C  MulP   1.9959  1.9959 sum   3.9918
   12    C  MulP   1.9969  1.9969 sum   3.9938
   13    C  MulP   1.9994  1.9994 sum   3.9987
   14    C  MulP   1.9987  1.9987 sum   3.9973
   15    C  MulP   1.9967  1.9967 sum   3.9935
   16    C  MulP   1.9986  1.9986 sum   3.9972
   17    C  MulP   1.9956  1.9956 sum   3.9912
   18    C  MulP   1.9921  1.9921 sum   3.9843
   19    C  MulP   1.9781  1.9781 sum   3.9562
   20    C  MulP   1.9833  1.9833 sum   3.9665
     ..........
     ......

 Sum of MulP: up   =   252.00000 down          =   252.00000
              total=   504.00000 ideal(neutral)=   504.00000
<DFT>  Total Spin Moment (muB) =  0.000000000000
<DFT>  Mixing_weight= 0.070784303114
<DFT>  Uele   = -239.930421743112  dUele     =   0.697901456340
<DFT>  NormRD =    1.119743530657  Criterion =   0.000000010000

******************* MD= 1  SCF=15 *******************
<Poisson>  Poisson's equation using FFT...
<Set_Hamiltonian>  Hamiltonian matrix for VNA+dVH+Vxc...
<Band>  Solving the eigenvalue problem...
 KGrids1:  -0.43750  -0.31250  -0.18750  -0.06250   0.06250   0.18750   0.31250   0.43750 
 KGrids2:  -0.43750  -0.31250  -0.18750  -0.06250   0.06250   0.18750   0.31250   0.43750 
 KGrids3:   0.00000 
<Band_DFT>  Eigen, time=11.926733
<Band_DFT>  DM, time=0.000000
    1    C  MulP   1.9996  1.9996 sum   3.9992
    2    C  MulP   1.9991  1.9991 sum   3.9983
    3    C  MulP   1.9993  1.9993 sum   3.9985
    4    C  MulP   1.9994  1.9994 sum   3.9988
    5    C  MulP   1.9996  1.9996 sum   3.9992
    6    C  MulP   1.9994  1.9994 sum   3.9988
    7    C  MulP   1.9996  1.9996 sum   3.9992
    8    C  MulP   1.9994  1.9994 sum   3.9987
    9    C  MulP   2.0000  2.0000 sum   3.9999
   10    C  MulP   1.9991  1.9991 sum   3.9982
   11    C  MulP   1.9966  1.9966 sum   3.9931
   12    C  MulP   1.9990  1.9990 sum   3.9981
   13    C  MulP   2.0001  2.0001 sum   4.0001
   14    C  MulP   1.9996  1.9996 sum   3.9992
   15    C  MulP   1.9994  1.9994 sum   3.9988
   16    C  MulP   1.9996  1.9996 sum   3.9992
   17    C  MulP   1.9989  1.9989 sum   3.9978
   18    C  MulP   1.9986  1.9986 sum   3.9971
   19    C  MulP   1.9800  1.9800 sum   3.9599
   20    C  MulP   1.9790  1.9790 sum   3.9580
     ..........
     ......

 Sum of MulP: up   =   252.00000 down          =   252.00000
              total=   504.00000 ideal(neutral)=   504.00000
<DFT>  Total Spin Moment (muB) =  0.000000000000
<DFT>  Mixing_weight= 0.030000000000
<DFT>  Uele   = -240.065262954061  dUele     =   0.134841210949
<DFT>  NormRD =    0.402396150315  Criterion =   0.000000010000

******************* MD= 1  SCF=16 *******************
<Poisson>  Poisson's equation using FFT...
<Set_Hamiltonian>  Hamiltonian matrix for VNA+dVH+Vxc...
<Band>  Solving the eigenvalue problem...
 KGrids1:  -0.43750  -0.31250  -0.18750  -0.06250   0.06250   0.18750   0.31250   0.43750 
 KGrids2:  -0.43750  -0.31250  -0.18750  -0.06250   0.06250   0.18750   0.31250   0.43750 
 KGrids3:   0.00000 
<Band_DFT>  Eigen, time=11.912300
<Band_DFT>  DM, time=0.000001
    1    C  MulP   1.9977  1.9977 sum   3.9953
    2    C  MulP   1.9943  1.9943 sum   3.9887
    3    C  MulP   1.9944  1.9944 sum   3.9887
    4    C  MulP   1.9973  1.9973 sum   3.9946
    5    C  MulP   1.9941  1.9941 sum   3.9882
    6    C  MulP   1.9973  1.9973 sum   3.9946
    7    C  MulP   1.9976  1.9976 sum   3.9952
    8    C  MulP   1.9942  1.9942 sum   3.9885
    9    C  MulP   1.9977  1.9977 sum   3.9953
   10    C  MulP   1.9963  1.9963 sum   3.9926
   11    C  MulP   1.9939  1.9939 sum   3.9878
   12    C  MulP   1.9953  1.9953 sum   3.9907
   13    C  MulP   1.9965  1.9965 sum   3.9931
   14    C  MulP   1.9973  1.9973 sum   3.9945
   15    C  MulP   1.9939  1.9939 sum   3.9878
   16    C  MulP   1.9975  1.9975 sum   3.9950
   17    C  MulP   1.9932  1.9932 sum   3.9864
   18    C  MulP   1.9982  1.9982 sum   3.9964
   19    C  MulP   1.9910  1.9910 sum   3.9821
   20    C  MulP   1.9860  1.9860 sum   3.9720
     ..........
     ......

 Sum of MulP: up   =   252.00000 down          =   252.00000
              total=   504.00000 ideal(neutral)=   504.00000
<DFT>  Total Spin Moment (muB) =  0.000000000000
<DFT>  Mixing_weight= 0.030000000000
<DFT>  Uele   = -242.073771259900  dUele     =   2.008508305839
<DFT>  NormRD =    1.386669516744  Criterion =   0.000000010000

******************* MD= 1  SCF=17 *******************
<Poisson>  Poisson's equation using FFT...
<Set_Hamiltonian>  Hamiltonian matrix for VNA+dVH+Vxc...
<Band>  Solving the eigenvalue problem...
 KGrids1:  -0.43750  -0.31250  -0.18750  -0.06250   0.06250   0.18750   0.31250   0.43750 
 KGrids2:  -0.43750  -0.31250  -0.18750  -0.06250   0.06250   0.18750   0.31250   0.43750 
 KGrids3:   0.00000 
<Band_DFT>  Eigen, time=11.911917
<Band_DFT>  DM, time=0.000000
    1    C  MulP   1.9998  1.9998 sum   3.9996
    2    C  MulP   1.9995  1.9995 sum   3.9989
    3    C  MulP   1.9997  1.9997 sum   3.9993
    4    C  MulP   1.9995  1.9995 sum   3.9991
    5    C  MulP   1.9998  1.9998 sum   3.9996
    6    C  MulP   1.9995  1.9995 sum   3.9989
    7    C  MulP   1.9997  1.9997 sum   3.9994
    8    C  MulP   1.9996  1.9996 sum   3.9992
    9    C  MulP   2.0001  2.0001 sum   4.0003
   10    C  MulP   1.9995  1.9995 sum   3.9989
   11    C  MulP   1.9970  1.9970 sum   3.9941
   12    C  MulP   1.9994  1.9994 sum   3.9989
   13    C  MulP   2.0002  2.0002 sum   4.0003
   14    C  MulP   1.9997  1.9997 sum   3.9994
   15    C  MulP   1.9996  1.9996 sum   3.9991
   16    C  MulP   1.9997  1.9997 sum   3.9994
   17    C  MulP   1.9991  1.9991 sum   3.9982
   18    C  MulP   1.9988  1.9988 sum   3.9976
   19    C  MulP   1.9800  1.9800 sum   3.9601
   20    C  MulP   1.9799  1.9799 sum   3.9598
     ..........
     ......

 Sum of MulP: up   =   252.00000 down          =   252.00000
              total=   504.00000 ideal(neutral)=   504.00000
<DFT>  Total Spin Moment (muB) =  0.000000000000
<DFT>  Mixing_weight= 0.030000000000
<DFT>  Uele   = -241.107862183844  dUele     =   0.965909076056
<DFT>  NormRD =    0.243581843582  Criterion =   0.000000010000

******************* MD= 1  SCF=18 *******************
<Poisson>  Poisson's equation using FFT...
<Set_Hamiltonian>  Hamiltonian matrix for VNA+dVH+Vxc...
<Band>  Solving the eigenvalue problem...
 KGrids1:  -0.43750  -0.31250  -0.18750  -0.06250   0.06250   0.18750   0.31250   0.43750 
 KGrids2:  -0.43750  -0.31250  -0.18750  -0.06250   0.06250   0.18750   0.31250   0.43750 
 KGrids3:   0.00000 
<Band_DFT>  Eigen, time=11.944766
<Band_DFT>  DM, time=0.000001
    1    C  MulP   1.9986  1.9986 sum   3.9972
    2    C  MulP   1.9974  1.9974 sum   3.9948
    3    C  MulP   1.9976  1.9976 sum   3.9951
    4    C  MulP   1.9984  1.9984 sum   3.9969
    5    C  MulP   1.9975  1.9975 sum   3.9951
    6    C  MulP   1.9985  1.9985 sum   3.9971
    7    C  MulP   1.9987  1.9987 sum   3.9975
    8    C  MulP   1.9973  1.9973 sum   3.9946
    9    C  MulP   1.9991  1.9991 sum   3.9982
   10    C  MulP   1.9969  1.9969 sum   3.9939
   11    C  MulP   1.9957  1.9957 sum   3.9913
   12    C  MulP   1.9966  1.9966 sum   3.9931
   13    C  MulP   1.9990  1.9990 sum   3.9981
   14    C  MulP   1.9989  1.9989 sum   3.9978
   15    C  MulP   1.9975  1.9975 sum   3.9949
   16    C  MulP   1.9988  1.9988 sum   3.9976
   17    C  MulP   1.9969  1.9969 sum   3.9938
   18    C  MulP   2.0002  2.0002 sum   4.0004
   19    C  MulP   1.9807  1.9807 sum   3.9614
   20    C  MulP   1.9780  1.9780 sum   3.9560
     ..........
     ......

 Sum of MulP: up   =   252.00000 down          =   252.00000
              total=   504.00000 ideal(neutral)=   504.00000
<DFT>  Total Spin Moment (muB) =  0.000000000000
<DFT>  Mixing_weight= 0.030000000000
<DFT>  Uele   = -242.785186378320  dUele     =   1.677324194476
<DFT>  NormRD =    0.248545831367  Criterion =   0.000000010000

******************* MD= 1  SCF=19 *******************
<Poisson>  Poisson's equation using FFT...
<Set_Hamiltonian>  Hamiltonian matrix for VNA+dVH+Vxc...
<Band>  Solving the eigenvalue problem...
 KGrids1:  -0.43750  -0.31250  -0.18750  -0.06250   0.06250   0.18750   0.31250   0.43750 
 KGrids2:  -0.43750  -0.31250  -0.18750  -0.06250   0.06250   0.18750   0.31250   0.43750 
 KGrids3:   0.00000 
<Band_DFT>  Eigen, time=11.910331
<Band_DFT>  DM, time=0.000000
    1    C  MulP   1.9998  1.9998 sum   3.9995
    2    C  MulP   1.9991  1.9991 sum   3.9982
    3    C  MulP   1.9992  1.9992 sum   3.9984
    4    C  MulP   1.9996  1.9996 sum   3.9992
    5    C  MulP   1.9996  1.9996 sum   3.9993
    6    C  MulP   1.9995  1.9995 sum   3.9990
    7    C  MulP   1.9997  1.9997 sum   3.9994
    8    C  MulP   1.9994  1.9994 sum   3.9988
    9    C  MulP   2.0000  2.0000 sum   4.0000
   10    C  MulP   1.9994  1.9994 sum   3.9989
   11    C  MulP   1.9963  1.9963 sum   3.9925
   12    C  MulP   1.9991  1.9991 sum   3.9983
   13    C  MulP   2.0000  2.0000 sum   4.0000
   14    C  MulP   1.9998  1.9998 sum   3.9996
   15    C  MulP   1.9994  1.9994 sum   3.9989
   16    C  MulP   1.9997  1.9997 sum   3.9995
   17    C  MulP   1.9988  1.9988 sum   3.9976
   18    C  MulP   1.9984  1.9984 sum   3.9969
   19    C  MulP   1.9820  1.9820 sum   3.9640
   20    C  MulP   1.9799  1.9799 sum   3.9598
     ..........
     ......

 Sum of MulP: up   =   252.00000 down          =   252.00000
              total=   504.00000 ideal(neutral)=   504.00000
<DFT>  Total Spin Moment (muB) =  0.000000000000
<DFT>  Mixing_weight= 0.030000000000
<DFT>  Uele   = -242.879920214960  dUele     =   0.094733836640
<DFT>  NormRD =    0.095539551370  Criterion =   0.000000010000

******************* MD= 1  SCF=20 *******************
<Poisson>  Poisson's equation using FFT...
<Set_Hamiltonian>  Hamiltonian matrix for VNA+dVH+Vxc...
<Band>  Solving the eigenvalue problem...
 KGrids1:  -0.43750  -0.31250  -0.18750  -0.06250   0.06250   0.18750   0.31250   0.43750 
 KGrids2:  -0.43750  -0.31250  -0.18750  -0.06250   0.06250   0.18750   0.31250   0.43750 
 KGrids3:   0.00000 
<Band_DFT>  Eigen, time=11.966549
<Band_DFT>  DM, time=0.000000
    1    C  MulP   1.9997  1.9997 sum   3.9994
    2    C  MulP   1.9991  1.9991 sum   3.9982
    3    C  MulP   1.9993  1.9993 sum   3.9985
    4    C  MulP   1.9993  1.9993 sum   3.9985
    5    C  MulP   1.9991  1.9991 sum   3.9981
    6    C  MulP   1.9993  1.9993 sum   3.9986
    7    C  MulP   1.9996  1.9996 sum   3.9991
    8    C  MulP   1.9991  1.9991 sum   3.9982
    9    C  MulP   2.0001  2.0001 sum   4.0001
   10    C  MulP   1.9995  1.9995 sum   3.9989
   11    C  MulP   1.9971  1.9971 sum   3.9942
   12    C  MulP   1.9995  1.9995 sum   3.9991
   13    C  MulP   1.9996  1.9996 sum   3.9992
   14    C  MulP   1.9992  1.9992 sum   3.9984
   15    C  MulP   1.9988  1.9988 sum   3.9977
   16    C  MulP   1.9995  1.9995 sum   3.9989
   17    C  MulP   1.9987  1.9987 sum   3.9974
   18    C  MulP   1.9993  1.9993 sum   3.9986
   19    C  MulP   1.9812  1.9812 sum   3.9625
   20    C  MulP   1.9808  1.9808 sum   3.9616
     ..........
     ......

 Sum of MulP: up   =   252.00000 down          =   252.00000
              total=   504.00000 ideal(neutral)=   504.00000
<DFT>  Total Spin Moment (muB) =  0.000000000000
<DFT>  Mixing_weight= 0.030000000000
<DFT>  Uele   = -243.352376274046  dUele     =   0.472456059086
<DFT>  NormRD =    0.025319764173  Criterion =   0.000000010000

******************* MD= 1  SCF=21 *******************
<Poisson>  Poisson's equation using FFT...
<Set_Hamiltonian>  Hamiltonian matrix for VNA+dVH+Vxc...
<Band>  Solving the eigenvalue problem...
 KGrids1:  -0.43750  -0.31250  -0.18750  -0.06250   0.06250   0.18750   0.31250   0.43750 
 KGrids2:  -0.43750  -0.31250  -0.18750  -0.06250   0.06250   0.18750   0.31250   0.43750 
 KGrids3:   0.00000 
<Band_DFT>  Eigen, time=11.919822
<Band_DFT>  DM, time=0.000000
    1    C  MulP   1.9995  1.9995 sum   3.9991
    2    C  MulP   1.9988  1.9988 sum   3.9977
    3    C  MulP   1.9991  1.9991 sum   3.9981
    4    C  MulP   1.9994  1.9994 sum   3.9988
    5    C  MulP   1.9993  1.9993 sum   3.9987
    6    C  MulP   1.9993  1.9993 sum   3.9986
    7    C  MulP   1.9995  1.9995 sum   3.9990
    8    C  MulP   1.9990  1.9990 sum   3.9980
    9    C  MulP   1.9999  1.9999 sum   3.9997
   10    C  MulP   1.9988  1.9988 sum   3.9976
   11    C  MulP   1.9964  1.9964 sum   3.9928
   12    C  MulP   1.9986  1.9986 sum   3.9973
   13    C  MulP   2.0000  2.0000 sum   3.9999
   14    C  MulP   1.9997  1.9997 sum   3.9994
   15    C  MulP   1.9992  1.9992 sum   3.9984
   16    C  MulP   1.9995  1.9995 sum   3.9991
   17    C  MulP   1.9985  1.9985 sum   3.9970
   18    C  MulP   1.9990  1.9990 sum   3.9980
   19    C  MulP   1.9806  1.9806 sum   3.9612
   20    C  MulP   1.9795  1.9795 sum   3.9591
     ..........
     ......

 Sum of MulP: up   =   252.00000 down          =   252.00000
              total=   504.00000 ideal(neutral)=   504.00000
<DFT>  Total Spin Moment (muB) =  0.000000000000
<DFT>  Mixing_weight= 0.030000000000
<DFT>  Uele   = -243.516998878556  dUele     =   0.164622604510
<DFT>  NormRD =    0.048655342832  Criterion =   0.000000010000

******************* MD= 1  SCF=22 *******************
<Poisson>  Poisson's equation using FFT...
<Set_Hamiltonian>  Hamiltonian matrix for VNA+dVH+Vxc...
<Band>  Solving the eigenvalue problem...
 KGrids1:  -0.43750  -0.31250  -0.18750  -0.06250   0.06250   0.18750   0.31250   0.43750 
 KGrids2:  -0.43750  -0.31250  -0.18750  -0.06250   0.06250   0.18750   0.31250   0.43750 
 KGrids3:   0.00000 
<Band_DFT>  Eigen, time=11.923901
<Band_DFT>  DM, time=0.000001
    1    C  MulP   1.9996  1.9996 sum   3.9992
    2    C  MulP   1.9989  1.9989 sum   3.9978
    3    C  MulP   1.9990  1.9990 sum   3.9981
    4    C  MulP   1.9993  1.9993 sum   3.9987
    5    C  MulP   1.9992  1.9992 sum   3.9984
    6    C  MulP   1.9993  1.9993 sum   3.9986
    7    C  MulP   1.9995  1.9995 sum   3.9991
    8    C  MulP   1.9991  1.9991 sum   3.9981
    9    C  MulP   1.9999  1.9999 sum   3.9998
   10    C  MulP   1.9990  1.9990 sum   3.9980
   11    C  MulP   1.9965  1.9965 sum   3.9929
   12    C  MulP   1.9988  1.9988 sum   3.9976
   13    C  MulP   1.9998  1.9998 sum   3.9997
   14    C  MulP   1.9995  1.9995 sum   3.9990
   15    C  MulP   1.9990  1.9990 sum   3.9980
   16    C  MulP   1.9995  1.9995 sum   3.9991
   17    C  MulP   1.9985  1.9985 sum   3.9969
   18    C  MulP   1.9990  1.9990 sum   3.9980
   19    C  MulP   1.9809  1.9809 sum   3.9618
   20    C  MulP   1.9796  1.9796 sum   3.9593
     ..........
     ......

 Sum of MulP: up   =   252.00000 down          =   252.00000
              total=   504.00000 ideal(neutral)=   504.00000
<DFT>  Total Spin Moment (muB) =  0.000000000000
<DFT>  Mixing_weight= 0.030000000000
<DFT>  Uele   = -243.543078293912  dUele     =   0.026079415356
<DFT>  NormRD =    0.026785161639  Criterion =   0.000000010000

******************* MD= 1  SCF=23 *******************
<Poisson>  Poisson's equation using FFT...
<Set_Hamiltonian>  Hamiltonian matrix for VNA+dVH+Vxc...
<Band>  Solving the eigenvalue problem...
 KGrids1:  -0.43750  -0.31250  -0.18750  -0.06250   0.06250   0.18750   0.31250   0.43750 
 KGrids2:  -0.43750  -0.31250  -0.18750  -0.06250   0.06250   0.18750   0.31250   0.43750 
 KGrids3:   0.00000 
<Band_DFT>  Eigen, time=11.922230
<Band_DFT>  DM, time=0.000001
    1    C  MulP   1.9995  1.9995 sum   3.9991
    2    C  MulP   1.9988  1.9988 sum   3.9977
    3    C  MulP   1.9990  1.9990 sum   3.9980
    4    C  MulP   1.9993  1.9993 sum   3.9986
    5    C  MulP   1.9992  1.9992 sum   3.9983
    6    C  MulP   1.9993  1.9993 sum   3.9985
    7    C  MulP   1.9995  1.9995 sum   3.9990
    8    C  MulP   1.9990  1.9990 sum   3.9980
    9    C  MulP   1.9999  1.9999 sum   3.9998
   10    C  MulP   1.9990  1.9990 sum   3.9979
   11    C  MulP   1.9965  1.9965 sum   3.9930
   12    C  MulP   1.9989  1.9989 sum   3.9977
   13    C  MulP   1.9998  1.9998 sum   3.9996
   14    C  MulP   1.9995  1.9995 sum   3.9990
   15    C  MulP   1.9990  1.9990 sum   3.9980
   16    C  MulP   1.9995  1.9995 sum   3.9990
   17    C  MulP   1.9985  1.9985 sum   3.9970
   18    C  MulP   1.9990  1.9990 sum   3.9979
   19    C  MulP   1.9810  1.9810 sum   3.9621
   20    C  MulP   1.9798  1.9798 sum   3.9597
     ..........
     ......

 Sum of MulP: up   =   252.00000 down          =   252.00000
              total=   504.00000 ideal(neutral)=   504.00000
<DFT>  Total Spin Moment (muB) =  0.000000000000
<DFT>  Mixing_weight= 0.030000000000
<DFT>  Uele   = -243.549422238999  dUele     =   0.006343945087
<DFT>  NormRD =    0.010598379730  Criterion =   0.000000010000

******************* MD= 1  SCF=24 *******************
<Poisson>  Poisson's equation using FFT...
<Set_Hamiltonian>  Hamiltonian matrix for VNA+dVH+Vxc...
<Band>  Solving the eigenvalue problem...
 KGrids1:  -0.43750  -0.31250  -0.18750  -0.06250   0.06250   0.18750   0.31250   0.43750 
 KGrids2:  -0.43750  -0.31250  -0.18750  -0.06250   0.06250   0.18750   0.31250   0.43750 
 KGrids3:   0.00000 
<Band_DFT>  Eigen, time=11.915765
<Band_DFT>  DM, time=0.000001
    1    C  MulP   1.9996  1.9996 sum   3.9992
    2    C  MulP   1.9989  1.9989 sum   3.9978
    3    C  MulP   1.9990  1.9990 sum   3.9981
    4    C  MulP   1.9994  1.9994 sum   3.9987
    5    C  MulP   1.9992  1.9992 sum   3.9985
    6    C  MulP   1.9993  1.9993 sum   3.9987
    7    C  MulP   1.9996  1.9996 sum   3.9991
    8    C  MulP   1.9991  1.9991 sum   3.9981
    9    C  MulP   1.9999  1.9999 sum   3.9998
   10    C  MulP   1.9990  1.9990 sum   3.9981
   11    C  MulP   1.9965  1.9965 sum   3.9929
   12    C  MulP   1.9988  1.9988 sum   3.9977
   13    C  MulP   1.9998  1.9998 sum   3.9996
   14    C  MulP   1.9996  1.9996 sum   3.9991
   15    C  MulP   1.9990  1.9990 sum   3.9981
   16    C  MulP   1.9995  1.9995 sum   3.9991
   17    C  MulP   1.9985  1.9985 sum   3.9970
   18    C  MulP   1.9989  1.9989 sum   3.9979
   19    C  MulP   1.9812  1.9812 sum   3.9624
   20    C  MulP   1.9798  1.9798 sum   3.9597
     ..........
     ......

 Sum of MulP: up   =   252.00000 down          =   252.00000
              total=   504.00000 ideal(neutral)=   504.00000
<DFT>  Total Spin Moment (muB) =  0.000000000000
<DFT>  Mixing_weight= 0.030000000000
<DFT>  Uele   = -243.563128895445  dUele     =   0.013706656446
<DFT>  NormRD =    0.007318411541  Criterion =   0.000000010000

******************* MD= 1  SCF=25 *******************
<Poisson>  Poisson's equation using FFT...
<Set_Hamiltonian>  Hamiltonian matrix for VNA+dVH+Vxc...
<Band>  Solving the eigenvalue problem...
 KGrids1:  -0.43750  -0.31250  -0.18750  -0.06250   0.06250   0.18750   0.31250   0.43750 
 KGrids2:  -0.43750  -0.31250  -0.18750  -0.06250   0.06250   0.18750   0.31250   0.43750 
 KGrids3:   0.00000 
<Band_DFT>  Eigen, time=11.916868
<Band_DFT>  DM, time=0.000000
    1    C  MulP   1.9996  1.9996 sum   3.9992
    2    C  MulP   1.9989  1.9989 sum   3.9977
    3    C  MulP   1.9990  1.9990 sum   3.9981
    4    C  MulP   1.9993  1.9993 sum   3.9987
    5    C  MulP   1.9992  1.9992 sum   3.9984
    6    C  MulP   1.9993  1.9993 sum   3.9986
    7    C  MulP   1.9995  1.9995 sum   3.9991
    8    C  MulP   1.9990  1.9990 sum   3.9981
    9    C  MulP   1.9999  1.9999 sum   3.9998
   10    C  MulP   1.9990  1.9990 sum   3.9981
   11    C  MulP   1.9965  1.9965 sum   3.9929
   12    C  MulP   1.9989  1.9989 sum   3.9977
   13    C  MulP   1.9998  1.9998 sum   3.9996
   14    C  MulP   1.9995  1.9995 sum   3.9990
   15    C  MulP   1.9990  1.9990 sum   3.9980
   16    C  MulP   1.9995  1.9995 sum   3.9991
   17    C  MulP   1.9985  1.9985 sum   3.9970
   18    C  MulP   1.9990  1.9990 sum   3.9979
   19    C  MulP   1.9812  1.9812 sum   3.9625
   20    C  MulP   1.9799  1.9799 sum   3.9597
     ..........
     ......

 Sum of MulP: up   =   252.00000 down          =   252.00000
              total=   504.00000 ideal(neutral)=   504.00000
<DFT>  Total Spin Moment (muB) =  0.000000000000
<DFT>  Mixing_weight= 0.030000000000
<DFT>  Uele   = -243.564340341195  dUele     =   0.001211445749
<DFT>  NormRD =    0.005301384619  Criterion =   0.000000010000

******************* MD= 1  SCF=26 *******************
<Poisson>  Poisson's equation using FFT...
<Set_Hamiltonian>  Hamiltonian matrix for VNA+dVH+Vxc...
<Band>  Solving the eigenvalue problem...
 KGrids1:  -0.43750  -0.31250  -0.18750  -0.06250   0.06250   0.18750   0.31250   0.43750 
 KGrids2:  -0.43750  -0.31250  -0.18750  -0.06250   0.06250   0.18750   0.31250   0.43750 
 KGrids3:   0.00000 
<Band_DFT>  Eigen, time=11.932225
<Band_DFT>  DM, time=0.000000
    1    C  MulP   1.9996  1.9996 sum   3.9991
    2    C  MulP   1.9989  1.9989 sum   3.9977
    3    C  MulP   1.9990  1.9990 sum   3.9981
    4    C  MulP   1.9993  1.9993 sum   3.9987
    5    C  MulP   1.9992  1.9992 sum   3.9984
    6    C  MulP   1.9993  1.9993 sum   3.9986
    7    C  MulP   1.9995  1.9995 sum   3.9991
    8    C  MulP   1.9990  1.9990 sum   3.9981
    9    C  MulP   1.9999  1.9999 sum   3.9998
   10    C  MulP   1.9990  1.9990 sum   3.9981
   11    C  MulP   1.9965  1.9965 sum   3.9929
   12    C  MulP   1.9989  1.9989 sum   3.9977
   13    C  MulP   1.9998  1.9998 sum   3.9996
   14    C  MulP   1.9995  1.9995 sum   3.9990
   15    C  MulP   1.9990  1.9990 sum   3.9980
   16    C  MulP   1.9995  1.9995 sum   3.9990
   17    C  MulP   1.9985  1.9985 sum   3.9970
   18    C  MulP   1.9989  1.9989 sum   3.9979
   19    C  MulP   1.9812  1.9812 sum   3.9624
   20    C  MulP   1.9798  1.9798 sum   3.9596
     ..........
     ......

 Sum of MulP: up   =   252.00000 down          =   252.00000
              total=   504.00000 ideal(neutral)=   504.00000
<DFT>  Total Spin Moment (muB) =  0.000000000000
<DFT>  Mixing_weight= 0.030000000000
<DFT>  Uele   = -243.564234331361  dUele     =   0.000106009834
<DFT>  NormRD =    0.002540975603  Criterion =   0.000000010000

******************* MD= 1  SCF=27 *******************
<Poisson>  Poisson's equation using FFT...
<Set_Hamiltonian>  Hamiltonian matrix for VNA+dVH+Vxc...
<Band>  Solving the eigenvalue problem...
 KGrids1:  -0.43750  -0.31250  -0.18750  -0.06250   0.06250   0.18750   0.31250   0.43750 
 KGrids2:  -0.43750  -0.31250  -0.18750  -0.06250   0.06250   0.18750   0.31250   0.43750 
 KGrids3:   0.00000 
<Band_DFT>  Eigen, time=11.915700
<Band_DFT>  DM, time=0.000001
    1    C  MulP   1.9996  1.9996 sum   3.9991
    2    C  MulP   1.9989  1.9989 sum   3.9977
    3    C  MulP   1.9990  1.9990 sum   3.9981
    4    C  MulP   1.9993  1.9993 sum   3.9987
    5    C  MulP   1.9992  1.9992 sum   3.9984
    6    C  MulP   1.9993  1.9993 sum   3.9986
    7    C  MulP   1.9995  1.9995 sum   3.9991
    8    C  MulP   1.9990  1.9990 sum   3.9981
    9    C  MulP   1.9999  1.9999 sum   3.9998
   10    C  MulP   1.9990  1.9990 sum   3.9981
   11    C  MulP   1.9965  1.9965 sum   3.9929
   12    C  MulP   1.9989  1.9989 sum   3.9977
   13    C  MulP   1.9998  1.9998 sum   3.9996
   14    C  MulP   1.9995  1.9995 sum   3.9990
   15    C  MulP   1.9990  1.9990 sum   3.9980
   16    C  MulP   1.9995  1.9995 sum   3.9990
   17    C  MulP   1.9985  1.9985 sum   3.9970
   18    C  MulP   1.9989  1.9989 sum   3.9979
   19    C  MulP   1.9812  1.9812 sum   3.9623
   20    C  MulP   1.9798  1.9798 sum   3.9596
     ..........
     ......

 Sum of MulP: up   =   252.00000 down          =   252.00000
              total=   504.00000 ideal(neutral)=   504.00000
<DFT>  Total Spin Moment (muB) =  0.000000000000
<DFT>  Mixing_weight= 0.030000000000
<DFT>  Uele   = -243.563848685007  dUele     =   0.000385646354
<DFT>  NormRD =    0.001603762744  Criterion =   0.000000010000

******************* MD= 1  SCF=28 *******************
<Poisson>  Poisson's equation using FFT...
<Set_Hamiltonian>  Hamiltonian matrix for VNA+dVH+Vxc...
<Band>  Solving the eigenvalue problem...
 KGrids1:  -0.43750  -0.31250  -0.18750  -0.06250   0.06250   0.18750   0.31250   0.43750 
 KGrids2:  -0.43750  -0.31250  -0.18750  -0.06250   0.06250   0.18750   0.31250   0.43750 
 KGrids3:   0.00000 
<Band_DFT>  Eigen, time=12.004860
<Band_DFT>  DM, time=0.000000
    1    C  MulP   1.9996  1.9996 sum   3.9992
    2    C  MulP   1.9989  1.9989 sum   3.9977
    3    C  MulP   1.9990  1.9990 sum   3.9981
    4    C  MulP   1.9993  1.9993 sum   3.9987
    5    C  MulP   1.9992  1.9992 sum   3.9984
    6    C  MulP   1.9993  1.9993 sum   3.9986
    7    C  MulP   1.9995  1.9995 sum   3.9991
    8    C  MulP   1.9990  1.9990 sum   3.9981
    9    C  MulP   1.9999  1.9999 sum   3.9998
   10    C  MulP   1.9990  1.9990 sum   3.9980
   11    C  MulP   1.9965  1.9965 sum   3.9929
   12    C  MulP   1.9989  1.9989 sum   3.9977
   13    C  MulP   1.9998  1.9998 sum   3.9996
   14    C  MulP   1.9995  1.9995 sum   3.9990
   15    C  MulP   1.9990  1.9990 sum   3.9980
   16    C  MulP   1.9995  1.9995 sum   3.9991
   17    C  MulP   1.9985  1.9985 sum   3.9970
   18    C  MulP   1.9990  1.9990 sum   3.9979
   19    C  MulP   1.9812  1.9812 sum   3.9623
   20    C  MulP   1.9798  1.9798 sum   3.9596
     ..........
     ......

 Sum of MulP: up   =   252.00000 down          =   252.00000
              total=   504.00000 ideal(neutral)=   504.00000
<DFT>  Total Spin Moment (muB) =  0.000000000000
<DFT>  Mixing_weight= 0.030000000000
<DFT>  Uele   = -243.563614210356  dUele     =   0.000234474651
<DFT>  NormRD =    0.000394232389  Criterion =   0.000000010000

******************* MD= 1  SCF=29 *******************
<Poisson>  Poisson's equation using FFT...
<Set_Hamiltonian>  Hamiltonian matrix for VNA+dVH+Vxc...
<Band>  Solving the eigenvalue problem...
 KGrids1:  -0.43750  -0.31250  -0.18750  -0.06250   0.06250   0.18750   0.31250   0.43750 
 KGrids2:  -0.43750  -0.31250  -0.18750  -0.06250   0.06250   0.18750   0.31250   0.43750 
 KGrids3:   0.00000 
<Band_DFT>  Eigen, time=11.933620
<Band_DFT>  DM, time=0.000001
    1    C  MulP   1.9996  1.9996 sum   3.9992
    2    C  MulP   1.9989  1.9989 sum   3.9977
    3    C  MulP   1.9990  1.9990 sum   3.9981
    4    C  MulP   1.9993  1.9993 sum   3.9987
    5    C  MulP   1.9992  1.9992 sum   3.9984
    6    C  MulP   1.9993  1.9993 sum   3.9986
    7    C  MulP   1.9995  1.9995 sum   3.9991
    8    C  MulP   1.9990  1.9990 sum   3.9981
    9    C  MulP   1.9999  1.9999 sum   3.9998
   10    C  MulP   1.9990  1.9990 sum   3.9980
   11    C  MulP   1.9965  1.9965 sum   3.9929
   12    C  MulP   1.9989  1.9989 sum   3.9977
   13    C  MulP   1.9998  1.9998 sum   3.9996
   14    C  MulP   1.9995  1.9995 sum   3.9990
   15    C  MulP   1.9990  1.9990 sum   3.9980
   16    C  MulP   1.9995  1.9995 sum   3.9991
   17    C  MulP   1.9985  1.9985 sum   3.9970
   18    C  MulP   1.9989  1.9989 sum   3.9979
   19    C  MulP   1.9812  1.9812 sum   3.9623
   20    C  MulP   1.9798  1.9798 sum   3.9596
     ..........
     ......

 Sum of MulP: up   =   252.00000 down          =   252.00000
              total=   504.00000 ideal(neutral)=   504.00000
<DFT>  Total Spin Moment (muB) =  0.000000000000
<DFT>  Mixing_weight= 0.030000000000
<DFT>  Uele   = -243.563563421599  dUele     =   0.000050788757
<DFT>  NormRD =    0.000557053694  Criterion =   0.000000010000

******************* MD= 1  SCF=30 *******************
<Poisson>  Poisson's equation using FFT...
<Set_Hamiltonian>  Hamiltonian matrix for VNA+dVH+Vxc...
<Band>  Solving the eigenvalue problem...
 KGrids1:  -0.43750  -0.31250  -0.18750  -0.06250   0.06250   0.18750   0.31250   0.43750 
 KGrids2:  -0.43750  -0.31250  -0.18750  -0.06250   0.06250   0.18750   0.31250   0.43750 
 KGrids3:   0.00000 
<Band_DFT>  Eigen, time=11.918567
<Band_DFT>  DM, time=0.000001
    1    C  MulP   1.9996  1.9996 sum   3.9992
    2    C  MulP   1.9989  1.9989 sum   3.9977
    3    C  MulP   1.9990  1.9990 sum   3.9981
    4    C  MulP   1.9993  1.9993 sum   3.9987
    5    C  MulP   1.9992  1.9992 sum   3.9984
    6    C  MulP   1.9993  1.9993 sum   3.9986
    7    C  MulP   1.9995  1.9995 sum   3.9991
    8    C  MulP   1.9990  1.9990 sum   3.9981
    9    C  MulP   1.9999  1.9999 sum   3.9998
   10    C  MulP   1.9990  1.9990 sum   3.9981
   11    C  MulP   1.9965  1.9965 sum   3.9929
   12    C  MulP   1.9989  1.9989 sum   3.9977
   13    C  MulP   1.9998  1.9998 sum   3.9996
   14    C  MulP   1.9995  1.9995 sum   3.9990
   15    C  MulP   1.9990  1.9990 sum   3.9980
   16    C  MulP   1.9995  1.9995 sum   3.9991
   17    C  MulP   1.9985  1.9985 sum   3.9970
   18    C  MulP   1.9990  1.9990 sum   3.9979
   19    C  MulP   1.9812  1.9812 sum   3.9623
   20    C  MulP   1.9798  1.9798 sum   3.9596
     ..........
     ......

 Sum of MulP: up   =   252.00000 down          =   252.00000
              total=   504.00000 ideal(neutral)=   504.00000
<DFT>  Total Spin Moment (muB) =  0.000000000000
<DFT>  Mixing_weight= 0.030000000000
<DFT>  Uele   = -243.563575379894  dUele     =   0.000011958295
<DFT>  NormRD =    0.000246464081  Criterion =   0.000000010000

******************* MD= 1  SCF=31 *******************
<Poisson>  Poisson's equation using FFT...
<Set_Hamiltonian>  Hamiltonian matrix for VNA+dVH+Vxc...
<Band>  Solving the eigenvalue problem...
 KGrids1:  -0.43750  -0.31250  -0.18750  -0.06250   0.06250   0.18750   0.31250   0.43750 
 KGrids2:  -0.43750  -0.31250  -0.18750  -0.06250   0.06250   0.18750   0.31250   0.43750 
 KGrids3:   0.00000 
<Band_DFT>  Eigen, time=11.918439
<Band_DFT>  DM, time=0.000001
    1    C  MulP   1.9996  1.9996 sum   3.9992
    2    C  MulP   1.9989  1.9989 sum   3.9977
    3    C  MulP   1.9990  1.9990 sum   3.9981
    4    C  MulP   1.9993  1.9993 sum   3.9987
    5    C  MulP   1.9992  1.9992 sum   3.9984
    6    C  MulP   1.9993  1.9993 sum   3.9986
    7    C  MulP   1.9995  1.9995 sum   3.9991
    8    C  MulP   1.9990  1.9990 sum   3.9981
    9    C  MulP   1.9999  1.9999 sum   3.9998
   10    C  MulP   1.9990  1.9990 sum   3.9980
   11    C  MulP   1.9965  1.9965 sum   3.9929
   12    C  MulP   1.9989  1.9989 sum   3.9977
   13    C  MulP   1.9998  1.9998 sum   3.9996
   14    C  MulP   1.9995  1.9995 sum   3.9990
   15    C  MulP   1.9990  1.9990 sum   3.9980
   16    C  MulP   1.9995  1.9995 sum   3.9991
   17    C  MulP   1.9985  1.9985 sum   3.9970
   18    C  MulP   1.9989  1.9989 sum   3.9979
   19    C  MulP   1.9812  1.9812 sum   3.9623
   20    C  MulP   1.9798  1.9798 sum   3.9596
     ..........
     ......

 Sum of MulP: up   =   252.00000 down          =   252.00000
              total=   504.00000 ideal(neutral)=   504.00000
<DFT>  Total Spin Moment (muB) =  0.000000000000
<DFT>  Mixing_weight= 0.030000000000
<DFT>  Uele   = -243.563633202855  dUele     =   0.000057822961
<DFT>  NormRD =    0.000086398807  Criterion =   0.000000010000

******************* MD= 1  SCF=32 *******************
<Poisson>  Poisson's equation using FFT...
<Set_Hamiltonian>  Hamiltonian matrix for VNA+dVH+Vxc...
<Band>  Solving the eigenvalue problem...
 KGrids1:  -0.43750  -0.31250  -0.18750  -0.06250   0.06250   0.18750   0.31250   0.43750 
 KGrids2:  -0.43750  -0.31250  -0.18750  -0.06250   0.06250   0.18750   0.31250   0.43750 
 KGrids3:   0.00000 
<Band_DFT>  Eigen, time=11.918622
<Band_DFT>  DM, time=0.000001
    1    C  MulP   1.9996  1.9996 sum   3.9992
    2    C  MulP   1.9989  1.9989 sum   3.9977
    3    C  MulP   1.9990  1.9990 sum   3.9981
    4    C  MulP   1.9993  1.9993 sum   3.9987
    5    C  MulP   1.9992  1.9992 sum   3.9984
    6    C  MulP   1.9993  1.9993 sum   3.9986
    7    C  MulP   1.9995  1.9995 sum   3.9991
    8    C  MulP   1.9990  1.9990 sum   3.9981
    9    C  MulP   1.9999  1.9999 sum   3.9998
   10    C  MulP   1.9990  1.9990 sum   3.9981
   11    C  MulP   1.9965  1.9965 sum   3.9929
   12    C  MulP   1.9989  1.9989 sum   3.9977
   13    C  MulP   1.9998  1.9998 sum   3.9996
   14    C  MulP   1.9995  1.9995 sum   3.9990
   15    C  MulP   1.9990  1.9990 sum   3.9980
   16    C  MulP   1.9995  1.9995 sum   3.9991
   17    C  MulP   1.9985  1.9985 sum   3.9970
   18    C  MulP   1.9989  1.9989 sum   3.9979
   19    C  MulP   1.9812  1.9812 sum   3.9623
   20    C  MulP   1.9798  1.9798 sum   3.9596
     ..........
     ......

 Sum of MulP: up   =   252.00000 down          =   252.00000
              total=   504.00000 ideal(neutral)=   504.00000
<DFT>  Total Spin Moment (muB) =  0.000000000000
<DFT>  Mixing_weight= 0.030000000000
<DFT>  Uele   = -243.563662313497  dUele     =   0.000029110642
<DFT>  NormRD =    0.000044408291  Criterion =   0.000000010000

******************* MD= 1  SCF=33 *******************
<Poisson>  Poisson's equation using FFT...
<Set_Hamiltonian>  Hamiltonian matrix for VNA+dVH+Vxc...
<Band>  Solving the eigenvalue problem...
 KGrids1:  -0.43750  -0.31250  -0.18750  -0.06250   0.06250   0.18750   0.31250   0.43750 
 KGrids2:  -0.43750  -0.31250  -0.18750  -0.06250   0.06250   0.18750   0.31250   0.43750 
 KGrids3:   0.00000 
<Band_DFT>  Eigen, time=11.948043
<Band_DFT>  DM, time=0.000001
    1    C  MulP   1.9996  1.9996 sum   3.9992
    2    C  MulP   1.9989  1.9989 sum   3.9977
    3    C  MulP   1.9990  1.9990 sum   3.9981
    4    C  MulP   1.9993  1.9993 sum   3.9987
    5    C  MulP   1.9992  1.9992 sum   3.9984
    6    C  MulP   1.9993  1.9993 sum   3.9986
    7    C  MulP   1.9995  1.9995 sum   3.9991
    8    C  MulP   1.9990  1.9990 sum   3.9981
    9    C  MulP   1.9999  1.9999 sum   3.9998
   10    C  MulP   1.9990  1.9990 sum   3.9981
   11    C  MulP   1.9965  1.9965 sum   3.9929
   12    C  MulP   1.9989  1.9989 sum   3.9977
   13    C  MulP   1.9998  1.9998 sum   3.9996
   14    C  MulP   1.9995  1.9995 sum   3.9990
   15    C  MulP   1.9990  1.9990 sum   3.9980
   16    C  MulP   1.9995  1.9995 sum   3.9991
   17    C  MulP   1.9985  1.9985 sum   3.9970
   18    C  MulP   1.9989  1.9989 sum   3.9979
   19    C  MulP   1.9812  1.9812 sum   3.9623
   20    C  MulP   1.9798  1.9798 sum   3.9596
     ..........
     ......

 Sum of MulP: up   =   252.00000 down          =   252.00000
              total=   504.00000 ideal(neutral)=   504.00000
<DFT>  Total Spin Moment (muB) =  0.000000000000
<DFT>  Mixing_weight= 0.030000000000
<DFT>  Uele   = -243.563660603093  dUele     =   0.000001710404
<DFT>  NormRD =    0.000021190521  Criterion =   0.000000010000

******************* MD= 1  SCF=34 *******************
<Poisson>  Poisson's equation using FFT...
<Set_Hamiltonian>  Hamiltonian matrix for VNA+dVH+Vxc...
<Band>  Solving the eigenvalue problem...
 KGrids1:  -0.43750  -0.31250  -0.18750  -0.06250   0.06250   0.18750   0.31250   0.43750 
 KGrids2:  -0.43750  -0.31250  -0.18750  -0.06250   0.06250   0.18750   0.31250   0.43750 
 KGrids3:   0.00000 
<Band_DFT>  Eigen, time=11.925562
<Band_DFT>  DM, time=0.000001
    1    C  MulP   1.9996  1.9996 sum   3.9992
    2    C  MulP   1.9989  1.9989 sum   3.9977
    3    C  MulP   1.9990  1.9990 sum   3.9981
    4    C  MulP   1.9993  1.9993 sum   3.9987
    5    C  MulP   1.9992  1.9992 sum   3.9984
    6    C  MulP   1.9993  1.9993 sum   3.9986
    7    C  MulP   1.9995  1.9995 sum   3.9991
    8    C  MulP   1.9990  1.9990 sum   3.9981
    9    C  MulP   1.9999  1.9999 sum   3.9998
   10    C  MulP   1.9990  1.9990 sum   3.9981
   11    C  MulP   1.9965  1.9965 sum   3.9929
   12    C  MulP   1.9989  1.9989 sum   3.9977
   13    C  MulP   1.9998  1.9998 sum   3.9996
   14    C  MulP   1.9995  1.9995 sum   3.9990
   15    C  MulP   1.9990  1.9990 sum   3.9980
   16    C  MulP   1.9995  1.9995 sum   3.9991
   17    C  MulP   1.9985  1.9985 sum   3.9970
   18    C  MulP   1.9989  1.9989 sum   3.9979
   19    C  MulP   1.9812  1.9812 sum   3.9623
   20    C  MulP   1.9798  1.9798 sum   3.9596
     ..........
     ......

 Sum of MulP: up   =   252.00000 down          =   252.00000
              total=   504.00000 ideal(neutral)=   504.00000
<DFT>  Total Spin Moment (muB) =  0.000000000000
<DFT>  Mixing_weight= 0.030000000000
<DFT>  Uele   = -243.563662242864  dUele     =   0.000001639771
<DFT>  NormRD =    0.000007258662  Criterion =   0.000000010000

******************* MD= 1  SCF=35 *******************
<Poisson>  Poisson's equation using FFT...
<Set_Hamiltonian>  Hamiltonian matrix for VNA+dVH+Vxc...
<Band>  Solving the eigenvalue problem...
 KGrids1:  -0.43750  -0.31250  -0.18750  -0.06250   0.06250   0.18750   0.31250   0.43750 
 KGrids2:  -0.43750  -0.31250  -0.18750  -0.06250   0.06250   0.18750   0.31250   0.43750 
 KGrids3:   0.00000 
<Band_DFT>  Eigen, time=11.921298
<Band_DFT>  DM, time=0.000000
    1    C  MulP   1.9996  1.9996 sum   3.9992
    2    C  MulP   1.9989  1.9989 sum   3.9977
    3    C  MulP   1.9990  1.9990 sum   3.9981
    4    C  MulP   1.9993  1.9993 sum   3.9987
    5    C  MulP   1.9992  1.9992 sum   3.9984
    6    C  MulP   1.9993  1.9993 sum   3.9986
    7    C  MulP   1.9995  1.9995 sum   3.9991
    8    C  MulP   1.9990  1.9990 sum   3.9981
    9    C  MulP   1.9999  1.9999 sum   3.9998
   10    C  MulP   1.9990  1.9990 sum   3.9981
   11    C  MulP   1.9965  1.9965 sum   3.9929
   12    C  MulP   1.9989  1.9989 sum   3.9977
   13    C  MulP   1.9998  1.9998 sum   3.9996
   14    C  MulP   1.9995  1.9995 sum   3.9990
   15    C  MulP   1.9990  1.9990 sum   3.9980
   16    C  MulP   1.9995  1.9995 sum   3.9991
   17    C  MulP   1.9985  1.9985 sum   3.9970
   18    C  MulP   1.9989  1.9989 sum   3.9979
   19    C  MulP   1.9812  1.9812 sum   3.9623
   20    C  MulP   1.9798  1.9798 sum   3.9596
     ..........
     ......

 Sum of MulP: up   =   252.00000 down          =   252.00000
              total=   504.00000 ideal(neutral)=   504.00000
<DFT>  Total Spin Moment (muB) =  0.000000000000
<DFT>  Mixing_weight= 0.030000000000
<DFT>  Uele   = -243.563661631413  dUele     =   0.000000611451
<DFT>  NormRD =    0.000005491781  Criterion =   0.000000010000

******************* MD= 1  SCF=36 *******************
<Poisson>  Poisson's equation using FFT...
<Set_Hamiltonian>  Hamiltonian matrix for VNA+dVH+Vxc...
<Band>  Solving the eigenvalue problem...
 KGrids1:  -0.43750  -0.31250  -0.18750  -0.06250   0.06250   0.18750   0.31250   0.43750 
 KGrids2:  -0.43750  -0.31250  -0.18750  -0.06250   0.06250   0.18750   0.31250   0.43750 
 KGrids3:   0.00000 
<Band_DFT>  Eigen, time=11.916742
<Band_DFT>  DM, time=0.000002
    1    C  MulP   1.9996  1.9996 sum   3.9992
    2    C  MulP   1.9989  1.9989 sum   3.9977
    3    C  MulP   1.9990  1.9990 sum   3.9981
    4    C  MulP   1.9993  1.9993 sum   3.9987
    5    C  MulP   1.9992  1.9992 sum   3.9984
    6    C  MulP   1.9993  1.9993 sum   3.9986
    7    C  MulP   1.9995  1.9995 sum   3.9991
    8    C  MulP   1.9990  1.9990 sum   3.9981
    9    C  MulP   1.9999  1.9999 sum   3.9998
   10    C  MulP   1.9990  1.9990 sum   3.9981
   11    C  MulP   1.9965  1.9965 sum   3.9929
   12    C  MulP   1.9989  1.9989 sum   3.9977
   13    C  MulP   1.9998  1.9998 sum   3.9996
   14    C  MulP   1.9995  1.9995 sum   3.9990
   15    C  MulP   1.9990  1.9990 sum   3.9980
   16    C  MulP   1.9995  1.9995 sum   3.9991
   17    C  MulP   1.9985  1.9985 sum   3.9970
   18    C  MulP   1.9989  1.9989 sum   3.9979
   19    C  MulP   1.9812  1.9812 sum   3.9623
   20    C  MulP   1.9798  1.9798 sum   3.9596
     ..........
     ......

 Sum of MulP: up   =   252.00000 down          =   252.00000
              total=   504.00000 ideal(neutral)=   504.00000
<DFT>  Total Spin Moment (muB) =  0.000000000000
<DFT>  Mixing_weight= 0.030000000000
<DFT>  Uele   = -243.563663470489  dUele     =   0.000001839076
<DFT>  NormRD =    0.000004401883  Criterion =   0.000000010000

******************* MD= 1  SCF=37 *******************
<Poisson>  Poisson's equation using FFT...
<Set_Hamiltonian>  Hamiltonian matrix for VNA+dVH+Vxc...
<Band>  Solving the eigenvalue problem...
 KGrids1:  -0.43750  -0.31250  -0.18750  -0.06250   0.06250   0.18750   0.31250   0.43750 
 KGrids2:  -0.43750  -0.31250  -0.18750  -0.06250   0.06250   0.18750   0.31250   0.43750 
 KGrids3:   0.00000 
<Band_DFT>  Eigen, time=11.945066
<Band_DFT>  DM, time=0.000000
    1    C  MulP   1.9996  1.9996 sum   3.9992
    2    C  MulP   1.9989  1.9989 sum   3.9977
    3    C  MulP   1.9990  1.9990 sum   3.9981
    4    C  MulP   1.9993  1.9993 sum   3.9987
    5    C  MulP   1.9992  1.9992 sum   3.9984
    6    C  MulP   1.9993  1.9993 sum   3.9986
    7    C  MulP   1.9995  1.9995 sum   3.9991
    8    C  MulP   1.9990  1.9990 sum   3.9981
    9    C  MulP   1.9999  1.9999 sum   3.9998
   10    C  MulP   1.9990  1.9990 sum   3.9981
   11    C  MulP   1.9965  1.9965 sum   3.9929
   12    C  MulP   1.9989  1.9989 sum   3.9977
   13    C  MulP   1.9998  1.9998 sum   3.9996
   14    C  MulP   1.9995  1.9995 sum   3.9990
   15    C  MulP   1.9990  1.9990 sum   3.9980
   16    C  MulP   1.9995  1.9995 sum   3.9991
   17    C  MulP   1.9985  1.9985 sum   3.9970
   18    C  MulP   1.9989  1.9989 sum   3.9979
   19    C  MulP   1.9812  1.9812 sum   3.9623
   20    C  MulP   1.9798  1.9798 sum   3.9596
     ..........
     ......

 Sum of MulP: up   =   252.00000 down          =   252.00000
              total=   504.00000 ideal(neutral)=   504.00000
<DFT>  Total Spin Moment (muB) =  0.000000000000
<DFT>  Mixing_weight= 0.030000000000
<DFT>  Uele   = -243.563664117282  dUele     =   0.000000646793
<DFT>  NormRD =    0.000003027735  Criterion =   0.000000010000

******************* MD= 1  SCF=38 *******************
<Poisson>  Poisson's equation using FFT...
<Set_Hamiltonian>  Hamiltonian matrix for VNA+dVH+Vxc...
<Band>  Solving the eigenvalue problem...
 KGrids1:  -0.43750  -0.31250  -0.18750  -0.06250   0.06250   0.18750   0.31250   0.43750 
 KGrids2:  -0.43750  -0.31250  -0.18750  -0.06250   0.06250   0.18750   0.31250   0.43750 
 KGrids3:   0.00000 
<Band_DFT>  Eigen, time=11.921194
<Band_DFT>  DM, time=0.000001
    1    C  MulP   1.9996  1.9996 sum   3.9992
    2    C  MulP   1.9989  1.9989 sum   3.9977
    3    C  MulP   1.9990  1.9990 sum   3.9981
    4    C  MulP   1.9993  1.9993 sum   3.9987
    5    C  MulP   1.9992  1.9992 sum   3.9984
    6    C  MulP   1.9993  1.9993 sum   3.9986
    7    C  MulP   1.9995  1.9995 sum   3.9991
    8    C  MulP   1.9990  1.9990 sum   3.9981
    9    C  MulP   1.9999  1.9999 sum   3.9998
   10    C  MulP   1.9990  1.9990 sum   3.9981
   11    C  MulP   1.9965  1.9965 sum   3.9929
   12    C  MulP   1.9989  1.9989 sum   3.9977
   13    C  MulP   1.9998  1.9998 sum   3.9996
   14    C  MulP   1.9995  1.9995 sum   3.9990
   15    C  MulP   1.9990  1.9990 sum   3.9980
   16    C  MulP   1.9995  1.9995 sum   3.9991
   17    C  MulP   1.9985  1.9985 sum   3.9970
   18    C  MulP   1.9989  1.9989 sum   3.9979
   19    C  MulP   1.9812  1.9812 sum   3.9623
   20    C  MulP   1.9798  1.9798 sum   3.9596
     ..........
     ......

[...]
   15    C  MulP   1.9990  1.9990 sum   3.9980
   16    C  MulP   1.9995  1.9995 sum   3.9990
   17    C  MulP   1.9985  1.9985 sum   3.9970
   18    C  MulP   1.9988  1.9988 sum   3.9977
   19    C  MulP   1.9811  1.9811 sum   3.9622
   20    C  MulP   1.9802  1.9802 sum   3.9603
     ..........
     ......

 Sum of MulP: up   =   252.00000 down          =   252.00000
              total=   504.00000 ideal(neutral)=   504.00000
<DFT>  Total Spin Moment (muB) =  0.000000000000
<DFT>  Mixing_weight= 0.030000000000
<DFT>  Uele   = -243.446644613159  dUele     =   0.000000010009
<DFT>  NormRD =    0.000000099208  Criterion =   0.000000010000

******************* MD=35  SCF=20 *******************
<Poisson>  Poisson's equation using FFT...
<Set_Hamiltonian>  Hamiltonian matrix for VNA+dVH+Vxc...
<Band>  Solving the eigenvalue problem...
 KGrids1:  -0.43750  -0.31250  -0.18750  -0.06250   0.06250   0.18750   0.31250   0.43750 
 KGrids2:  -0.43750  -0.31250  -0.18750  -0.06250   0.06250   0.18750   0.31250   0.43750 
 KGrids3:   0.00000 
<Band_DFT>  Eigen, time=12.029564
<Band_DFT>  DM, time=0.000001
    1    C  MulP   1.9996  1.9996 sum   3.9991
    2    C  MulP   1.9989  1.9989 sum   3.9977
    3    C  MulP   1.9990  1.9990 sum   3.9981
    4    C  MulP   1.9993  1.9993 sum   3.9987
    5    C  MulP   1.9992  1.9992 sum   3.9984
    6    C  MulP   1.9993  1.9993 sum   3.9986
    7    C  MulP   1.9995  1.9995 sum   3.9990
    8    C  MulP   1.9990  1.9990 sum   3.9980
    9    C  MulP   1.9999  1.9999 sum   3.9997
   10    C  MulP   1.9990  1.9990 sum   3.9980
   11    C  MulP   1.9965  1.9965 sum   3.9931
   12    C  MulP   1.9989  1.9989 sum   3.9977
   13    C  MulP   1.9998  1.9998 sum   3.9996
   14    C  MulP   1.9995  1.9995 sum   3.9990
   15    C  MulP   1.9990  1.9990 sum   3.9980
   16    C  MulP   1.9995  1.9995 sum   3.9990
   17    C  MulP   1.9985  1.9985 sum   3.9970
   18    C  MulP   1.9988  1.9988 sum   3.9977
   19    C  MulP   1.9811  1.9811 sum   3.9622
   20    C  MulP   1.9802  1.9802 sum   3.9603
     ..........
     ......

 Sum of MulP: up   =   252.00000 down          =   252.00000
              total=   504.00000 ideal(neutral)=   504.00000
<DFT>  Total Spin Moment (muB) =  0.000000000000
<DFT>  Mixing_weight= 0.030000000000
<DFT>  Uele   = -243.446644610878  dUele     =   0.000000002281
<DFT>  NormRD =    0.000000023661  Criterion =   0.000000010000
<MD=35>  Force calculation
  Force calculation #1
  Force calculation #2
  Force calculation #3
  Force calculation #4
  Force calculation #5
<MD=35>  Total Energy
  Force calculation #6
  Force calculation #7

*******************************************************
                  Dipole moment (Debye)                 
*******************************************************

 Absolute D        0.36170982

                      Dx                Dy                Dz
 Total             -0.00008601        0.00005108       -0.36170981
 Core           11945.70011247    20690.55927159    25667.33809309
 Electron      -11945.70019848   -20690.55922051   -25667.69980289
 Back ground       -0.00000000       -0.00000000       -0.00000000

*******************************************************
                Total Energy (Hartree) at MD =35        
*******************************************************

  Uele  =    -243.446644610878

  Ukin  =     533.925877992439
  UH0   =   -7041.724390677674
  UH1   =       1.874765290459
  Una   =    -386.787235766632
  Unl   =     -58.755564344557
  Uxc0  =    -122.630451499942
  Uxc1  =    -122.630451499942
  Ucore =    6446.165314709887
  Uhub  =       0.000000000000
  Ucs   =       0.000000000000
  Uzs   =       0.000000000000
  Uzo   =       0.000000000000
  Uef   =       0.000000000000
  UvdW  =       0.000000000000
  Uch   =       0.000000000000
  Utot  =    -750.562135795963

  UpV   =       0.000000000000
  Enpy  =    -750.562135795963
  Note:

  Uele:   band energy
  Ukin:   kinetic energy
  UH0:    electric part of screened Coulomb energy
  UH1:    difference electron-electron Coulomb energy
  Una:    neutral atom potential energy
  Unl:    non-local potential energy
  Uxc0:   exchange-correlation energy for alpha spin
  Uxc1:   exchange-correlation energy for beta spin
  Ucore:  core-core Coulomb energy
  Uhub:   LDA+U energy
  Ucs:    constraint energy for spin orientation
  Uzs:    Zeeman term for spin magnetic moment
  Uzo:    Zeeman term for orbital magnetic moment
  Uef:    electric energy by electric field
  UvdW:   semi-empirical vdW energy 
  Uch:    penalty term to create a core hole
  UpV:    pressure times volume
  Enpy:   Enthalpy = Utot + UpV
  (see also PRB 72, 045121(2005) for the energy contributions)


*******************************************************
           Computational times (s) at MD =35            
*******************************************************

  DFT in total      =  283.33480

  Set_OLP_Kin       =    0.57446
  Set_Nonlocal      =    2.10348
  Set_ProExpn_VNA   =    3.49549
  Set_Hamiltonian   =   14.25187
  Poisson           =    0.23309
  diagonalization   =  249.47346
  Mixing_DM         =    2.10903
  Force             =    2.89784
  Total_Energy      =    0.89079
  Set_Aden_Grid     =    0.24712
  Set_Orbitals_Grid =    0.29073
  Set_Density_Grid  =    5.84622
  RestartFileDFT    =    0.38077
  Mulliken_Charge   =    0.01308
  FFT(2D)_Density   =    0.24344

The SCF was achieved at MD=  35

*******************************************************
             MD or geometry opt. at MD =35              
*******************************************************


The geometry optimization was achieved.
<RF>  |Maximum force| (Hartree/Bohr) = 0.000084356780
<RF>  Criterion       (Hartree/Bohr) = 0.000100000000

     atom=   1, XYZ(ang) Fxyz(a.u.)=   0.0008    1.4252   10.5056     0.0000    0.0000    0.0000
     atom=   2, XYZ(ang) Fxyz(a.u.)=  -1.2340    3.5624   10.5063     0.0000   -0.0000    0.0000
     atom=   3, XYZ(ang) Fxyz(a.u.)=  -2.4663    5.6973   10.5059     0.0000    0.0000    0.0000
     atom=   4, XYZ(ang) Fxyz(a.u.)=  -3.6992    7.8350   10.5046     0.0000    0.0000    0.0000
     atom=   5, XYZ(ang) Fxyz(a.u.)=  -4.9344    9.9707   10.5018     0.0000    0.0000   -0.0000
     atom=   6, XYZ(ang) Fxyz(a.u.)=  -6.1683   12.1078   10.4992    -0.0000   -0.0000   -0.0001
     atom=   7, XYZ(ang) Fxyz(a.u.)=  -7.4018   14.2445   10.5001    -0.0000    0.0000   -0.0001
     atom=   8, XYZ(ang) Fxyz(a.u.)=  -8.6358   16.3817   10.5028     0.0000    0.0000   -0.0001
     atom=   9, XYZ(ang) Fxyz(a.u.)=   2.4679    1.4272   10.5102     0.0000    0.0000    0.0000
     atom=  10, XYZ(ang) Fxyz(a.u.)=   1.2352    3.5634   10.5189    -0.0000    0.0000    0.0001
     atom=  11, XYZ(ang) Fxyz(a.u.)=   0.0022    5.6989   10.5217    -0.0000   -0.0000    0.0000
     atom=  12, XYZ(ang) Fxyz(a.u.)=  -1.2287    7.8345   10.5177     0.0000    0.0000    0.0000
     atom=  13, XYZ(ang) Fxyz(a.u.)=  -2.4631    9.9700   10.5088     0.0000    0.0000   -0.0000
     atom=  14, XYZ(ang) Fxyz(a.u.)=  -3.7000   12.1076   10.4991    -0.0000    0.0000   -0.0001
     atom=  15, XYZ(ang) Fxyz(a.u.)=  -4.9342   14.2445   10.4959    -0.0000    0.0000   -0.0001
     atom=  16, XYZ(ang) Fxyz(a.u.)=  -6.1679   16.3816   10.5008     0.0000    0.0000   -0.0000
     atom=  17, XYZ(ang) Fxyz(a.u.)=   4.9346    1.4231   10.5124     0.0000    0.0000    0.0000
     atom=  18, XYZ(ang) Fxyz(a.u.)=   3.7066    3.5633   10.5282    -0.0000    0.0000    0.0001
     atom=  19, XYZ(ang) Fxyz(a.u.)=   2.4739    5.7129   10.5401    -0.0000   -0.0000    0.0001
     atom=  20, XYZ(ang) Fxyz(a.u.)=   1.2548    7.8315   10.5369    -0.0000   -0.0000   -0.0000
     atom=  21, XYZ(ang) Fxyz(a.u.)=   0.0077    9.9742   10.5255     0.0000   -0.0000    0.0000
     atom=  22, XYZ(ang) Fxyz(a.u.)=  -1.2334   12.1080   10.5104    -0.0000    0.0000   -0.0000
     atom=  23, XYZ(ang) Fxyz(a.u.)=  -2.4664   14.2442   10.5007    -0.0000    0.0000   -0.0000
     atom=  24, XYZ(ang) Fxyz(a.u.)=  -3.7007   16.3816   10.5015     0.0000    0.0000   -0.0000
     atom=  25, XYZ(ang) Fxyz(a.u.)=   7.4007    1.4281   10.5116    -0.0000    0.0000    0.0000
     atom=  26, XYZ(ang) Fxyz(a.u.)=   6.1609    3.5653   10.5271    -0.0000   -0.0000    0.0000
     atom=  27, XYZ(ang) Fxyz(a.u.)=   4.9318    5.6785   10.5484    -0.0000    0.0000    0.0000
     atom=  28, XYZ(ang) Fxyz(a.u.)=   2.4497    9.9821   10.5362     0.0000   -0.0000    0.0000
     atom=  29, XYZ(ang) Fxyz(a.u.)=   1.2348   12.1004   10.5259     0.0000   -0.0000    0.0000
     atom=  30, XYZ(ang) Fxyz(a.u.)=   0.0031   14.2421   10.5108    -0.0000    0.0000   -0.0000
     atom=  31, XYZ(ang) Fxyz(a.u.)=  -1.2331   16.3818   10.5053    -0.0000    0.0000    0.0000
     atom=  32, XYZ(ang) Fxyz(a.u.)=   9.8678    1.4258   10.5078    -0.0000   -0.0000    0.0000
     atom=  33, XYZ(ang) Fxyz(a.u.)=   8.6325    3.5648   10.5192    -0.0000    0.0000   -0.0000
     atom=  34, XYZ(ang) Fxyz(a.u.)=   7.3926    5.7154   10.5352    -0.0000    0.0000    0.0000
     atom=  35, XYZ(ang) Fxyz(a.u.)=   3.7139   12.0920   10.5376     0.0000   -0.0000    0.0000
     atom=  36, XYZ(ang) Fxyz(a.u.)=   2.4697   14.2409   10.5194    -0.0000   -0.0000   -0.0000
     atom=  37, XYZ(ang) Fxyz(a.u.)=   1.2342   16.3800   10.5077    -0.0000    0.0000   -0.0000
     atom=  38, XYZ(ang) Fxyz(a.u.)=  12.3358    1.4247   10.5019     0.0000   -0.0000   -0.0000
     atom=  39, XYZ(ang) Fxyz(a.u.)=  11.1020    3.5629   10.5069     0.0000   -0.0000    0.0000
     atom=  40, XYZ(ang) Fxyz(a.u.)=   9.8654    5.6999   10.5211    -0.0000    0.0000    0.0000
     atom=  41, XYZ(ang) Fxyz(a.u.)=   8.6149    7.8337   10.5350    -0.0000   -0.0000    0.0000
     atom=  42, XYZ(ang) Fxyz(a.u.)=   7.4166    9.9835   10.5478     0.0000    0.0000   -0.0000
     atom=  43, XYZ(ang) Fxyz(a.u.)=   6.1584   12.0949   10.5402     0.0000    0.0000   -0.0000
     atom=  44, XYZ(ang) Fxyz(a.u.)=   4.9348   14.2427   10.5229    -0.0000    0.0000   -0.0000
     atom=  45, XYZ(ang) Fxyz(a.u.)=   3.7019   16.3812   10.5080     0.0000   -0.0000   -0.0000
     atom=  46, XYZ(ang) Fxyz(a.u.)=  14.8034    1.4246   10.4983     0.0000   -0.0000   -0.0000
     atom=  47, XYZ(ang) Fxyz(a.u.)=  13.5693    3.5617   10.4973     0.0000   -0.0000   -0.0000
     atom=  48, XYZ(ang) Fxyz(a.u.)=  12.3345    5.6977   10.5056    -0.0000   -0.0000   -0.0000
     atom=  49, XYZ(ang) Fxyz(a.u.)=  11.0978    7.8353   10.5177    -0.0000    0.0000    0.0000
     atom=  50, XYZ(ang) Fxyz(a.u.)=   9.8615    9.9754   10.5255    -0.0000   -0.0000   -0.0000
     atom=  51, XYZ(ang) Fxyz(a.u.)=   8.6363   12.1022   10.5268    -0.0000    0.0000   -0.0001
     atom=  52, XYZ(ang) Fxyz(a.u.)=   7.4006   14.2424   10.5190    -0.0000    0.0000   -0.0001
     atom=  53, XYZ(ang) Fxyz(a.u.)=   6.1670   16.3814   10.5070     0.0000   -0.0000   -0.0001
     atom=  54, XYZ(ang) Fxyz(a.u.)=  17.2709    1.4245   10.5005     0.0000   -0.0000    0.0000
     atom=  55, XYZ(ang) Fxyz(a.u.)=  16.0371    3.5615   10.4975     0.0000   -0.0000    0.0000
     atom=  56, XYZ(ang) Fxyz(a.u.)=  14.8033    5.6984   10.4992     0.0000    0.0000    0.0000
     atom=  57, XYZ(ang) Fxyz(a.u.)=  13.5681    7.8351   10.5046    -0.0000    0.0000    0.0000
     atom=  58, XYZ(ang) Fxyz(a.u.)=  12.3325    9.9704   10.5089    -0.0000   -0.0000   -0.0000
     atom=  59, XYZ(ang) Fxyz(a.u.)=  11.1037   12.1087   10.5105    -0.0000   -0.0000   -0.0001
     atom=  60, XYZ(ang) Fxyz(a.u.)=   9.8669   14.2429   10.5095    -0.0000    0.0000   -0.0001
     atom=  61, XYZ(ang) Fxyz(a.u.)=   8.6352   16.3804   10.5057     0.0000    0.0000   -0.0000
     atom=  62, XYZ(ang) Fxyz(a.u.)=   1.2340    0.7134   10.5057    -0.0000   -0.0000   -0.0000
     atom=  63, XYZ(ang) Fxyz(a.u.)=   0.0022    2.8510   10.5095     0.0000   -0.0000   -0.0001
     atom=  64, XYZ(ang) Fxyz(a.u.)=  -1.2346    4.9852   10.5105     0.0000    0.0000   -0.0001
     atom=  65, XYZ(ang) Fxyz(a.u.)=  -2.4633    7.1235   10.5089     0.0000    0.0000   -0.0000
     atom=  66, XYZ(ang) Fxyz(a.u.)=  -3.6989    9.2587   10.5046     0.0000   -0.0000    0.0000
     atom=  67, XYZ(ang) Fxyz(a.u.)=  -4.9341   11.3955   10.4992    -0.0000   -0.0000    0.0000
     atom=  68, XYZ(ang) Fxyz(a.u.)=  -6.1680   13.5324   10.4975    -0.0000    0.0000    0.0000
     atom=  69, XYZ(ang) Fxyz(a.u.)=  -7.4017   15.6693   10.5005    -0.0000    0.0000    0.0000
     atom=  70, XYZ(ang) Fxyz(a.u.)=   3.7022    0.7125   10.5070    -0.0000    0.0000   -0.0001
     atom=  71, XYZ(ang) Fxyz(a.u.)=   2.4686    2.8515   10.5190     0.0000   -0.0000   -0.0001
     atom=  72, XYZ(ang) Fxyz(a.u.)=   1.2328    4.9917   10.5268     0.0000   -0.0000   -0.0001
     atom=  73, XYZ(ang) Fxyz(a.u.)=   0.0076    7.1185   10.5255     0.0000    0.0000   -0.0000
     atom=  74, XYZ(ang) Fxyz(a.u.)=  -1.2286    9.2586   10.5177     0.0000   -0.0000    0.0000
     atom=  75, XYZ(ang) Fxyz(a.u.)=  -2.4653   11.3962   10.5056     0.0000    0.0000   -0.0000
     atom=  76, XYZ(ang) Fxyz(a.u.)=  -3.7002   13.5322   10.4973    -0.0000    0.0000   -0.0000
     atom=  77, XYZ(ang) Fxyz(a.u.)=  -4.9342   15.6693   10.4983    -0.0000    0.0000   -0.0000
     atom=  78, XYZ(ang) Fxyz(a.u.)=   6.1673    0.7127   10.5079    -0.0000    0.0000   -0.0000
     atom=  79, XYZ(ang) Fxyz(a.u.)=   4.9343    2.8512   10.5229     0.0000   -0.0000   -0.0000
     atom=  80, XYZ(ang) Fxyz(a.u.)=   3.7108    4.9990   10.5402    -0.0000   -0.0000   -0.0000
     atom=  81, XYZ(ang) Fxyz(a.u.)=   2.4525    7.1103   10.5478    -0.0000   -0.0000   -0.0000
     atom=  82, XYZ(ang) Fxyz(a.u.)=   1.2543    9.2602   10.5350     0.0000    0.0000    0.0000
     atom=  83, XYZ(ang) Fxyz(a.u.)=   0.0037   11.3939   10.5211     0.0000   -0.0000    0.0000
     atom=  84, XYZ(ang) Fxyz(a.u.)=  -1.2329   13.5310   10.5069    -0.0000    0.0000   -0.0000
     atom=  85, XYZ(ang) Fxyz(a.u.)=  -2.4667   15.6692   10.5019    -0.0000    0.0000   -0.0000
     atom=  86, XYZ(ang) Fxyz(a.u.)=   8.6350    0.7139   10.5077     0.0000   -0.0000   -0.0001
     atom=  87, XYZ(ang) Fxyz(a.u.)=   7.3994    2.8530   10.5194     0.0000    0.0000   -0.0000
     atom=  88, XYZ(ang) Fxyz(a.u.)=   6.1553    5.0019   10.5376    -0.0000    0.0000    0.0000
     atom=  89, XYZ(ang) Fxyz(a.u.)=   2.4766   11.3785   10.5352     0.0000   -0.0000    0.0000
     atom=  90, XYZ(ang) Fxyz(a.u.)=   1.2366   13.5290   10.5191     0.0000   -0.0000   -0.0000
     atom=  91, XYZ(ang) Fxyz(a.u.)=   0.0014   15.6681   10.5078     0.0000    0.0000    0.0000
     atom=  92, XYZ(ang) Fxyz(a.u.)=  11.1022    0.7121   10.5053     0.0000   -0.0000   -0.0000
     atom=  93, XYZ(ang) Fxyz(a.u.)=   9.8660    2.8518   10.5108     0.0000   -0.0000   -0.0001
     atom=  94, XYZ(ang) Fxyz(a.u.)=   8.6343    4.9934   10.5259    -0.0000    0.0000    0.0000
     atom=  95, XYZ(ang) Fxyz(a.u.)=   7.4195    7.1117   10.5362    -0.0000    0.0000    0.0000
     atom=  96, XYZ(ang) Fxyz(a.u.)=   4.9373   11.4154   10.5484     0.0000   -0.0000    0.0000
     atom=  97, XYZ(ang) Fxyz(a.u.)=   3.7082   13.5286   10.5271     0.0000    0.0000   -0.0000
     atom=  98, XYZ(ang) Fxyz(a.u.)=   2.4684   15.6657   10.5116     0.0000   -0.0000    0.0000
     atom=  99, XYZ(ang) Fxyz(a.u.)=  13.5699    0.7122   10.5015    -0.0000   -0.0000   -0.0000
     atom= 100, XYZ(ang) Fxyz(a.u.)=  12.3356    2.8497   10.5007     0.0000   -0.0000   -0.0001
     atom= 101, XYZ(ang) Fxyz(a.u.)=  11.1025    4.9859   10.5104     0.0000   -0.0000   -0.0000
     atom= 102, XYZ(ang) Fxyz(a.u.)=   9.8615    7.1196   10.5255    -0.0000    0.0000    0.0000
     atom= 103, XYZ(ang) Fxyz(a.u.)=   8.6144    9.2624   10.5369     0.0000    0.0000   -0.0000
     atom= 104, XYZ(ang) Fxyz(a.u.)=   7.3952   11.3810   10.5401     0.0000    0.0000    0.0001
     atom= 105, XYZ(ang) Fxyz(a.u.)=   6.1625   13.5306   10.5282     0.0000   -0.0000    0.0001
     atom= 106, XYZ(ang) Fxyz(a.u.)=   4.9346   15.6708   10.5124    -0.0000   -0.0000    0.0000
     atom= 107, XYZ(ang) Fxyz(a.u.)=  16.0371    0.7123   10.5008    -0.0000   -0.0000   -0.0001
     atom= 108, XYZ(ang) Fxyz(a.u.)=  14.8033    2.8494   10.4959     0.0000   -0.0000   -0.0001
     atom= 109, XYZ(ang) Fxyz(a.u.)=  13.5691    4.9863   10.4990     0.0000   -0.0000   -0.0001
     atom= 110, XYZ(ang) Fxyz(a.u.)=  12.3323    7.1239   10.5088    -0.0000   -0.0000   -0.0000
     atom= 111, XYZ(ang) Fxyz(a.u.)=  11.0979    9.2593   10.5177    -0.0000   -0.0000    0.0000
     atom= 112, XYZ(ang) Fxyz(a.u.)=   9.8669   11.3950   10.5217     0.0000    0.0000    0.0000
     atom= 113, XYZ(ang) Fxyz(a.u.)=   8.6340   13.5305   10.5189     0.0000   -0.0000    0.0001
     atom= 114, XYZ(ang) Fxyz(a.u.)=   7.4012   15.6666   10.5102    -0.0000   -0.0000    0.0000
     atom= 115, XYZ(ang) Fxyz(a.u.)=  18.5050    0.7121   10.5028    -0.0000   -0.0000   -0.0001
     atom= 116, XYZ(ang) Fxyz(a.u.)=  17.2710    2.8494   10.5001     0.0000   -0.0000   -0.0001
     atom= 117, XYZ(ang) Fxyz(a.u.)=  16.0375    4.9861   10.4992     0.0000    0.0000   -0.0001
     atom= 118, XYZ(ang) Fxyz(a.u.)=  14.8036    7.1232   10.5018    -0.0000   -0.0000   -0.0000
     atom= 119, XYZ(ang) Fxyz(a.u.)=  13.5684    9.2589   10.5046    -0.0000   -0.0000    0.0000
     atom= 120, XYZ(ang) Fxyz(a.u.)=  12.3355   11.3966   10.5059    -0.0000   -0.0000    0.0000
     atom= 121, XYZ(ang) Fxyz(a.u.)=  11.1032   13.5315   10.5063    -0.0000    0.0000    0.0000
     atom= 122, XYZ(ang) Fxyz(a.u.)=   9.8683   15.6686   10.5056    -0.0000   -0.0000    0.0000
     atom= 123, XYZ(ang) Fxyz(a.u.)=   4.9346    8.5469   13.2889    -0.0000   -0.0000   -0.0000
     atom= 124, XYZ(ang) Fxyz(a.u.)=   3.9069    9.1437   13.3100     0.0000   -0.0001    0.0001
     atom= 125, XYZ(ang) Fxyz(a.u.)=   5.9623    7.9502   13.3100    -0.0000    0.0001    0.0001

outputting data on grids to files...


***********************************************************
***********************************************************
               Computational Time (second)                 
***********************************************************
***********************************************************

                               Min_ID   Min_Time       Max_ID   Max_Time
   Total Computational Time =    63    11243.033          0    11243.187
   readfile                 =    40        2.539          0        2.545
   truncation               =    32       25.640         23       28.191
   MD_pac                   =     0        1.557         63        1.674
   OutData                  =    55        0.701          0        0.849
   DFT                      =    23    11209.851         32    11212.402

*** In DFT ***

   Set_OLP_Kin              =    32       19.384         17       39.318
   Set_Nonlocal             =    17       55.336         32       75.305
   Set_ProExpn_VNA          =     0      123.000         18      128.924
   Set_Hamiltonian          =    28      570.688         34      570.691
   Poisson                  =     8        9.148          1        9.153
   Diagonalization          =     0     9915.792          3     9915.808
   Mixing_DM                =    52       84.014          7       84.020
   Force                    =    54      101.568         58      101.568
   Total_Energy             =    33       31.117          0       31.128
   Set_Aden_Grid            =    18        2.066          0        8.004
   Set_Orbitals_Grid        =    32        9.228         10       19.934
   Set_Density_Grid         =    50      227.245         52      231.447
   RestartFileDFT           =    54        4.143         35       13.915
   Mulliken_Charge          =     8        0.495         42        0.496
   FFT(2D)_Density          =     3        9.656          9        9.658
   Others                   =    11        6.569         15       13.395

The calculation was normally finished.
