
The number of threads in each node for OpenMP parallelization is 1.


*******************************************************
*******************************************************
 Welcome to OpenMX   Ver. 3.9.9                           
 Copyright (C), 2002-2019, T. Ozaki                    
 OpenMX comes with ABSOLUTELY NO WARRANTY.             
 This is free software, and you are welcome to         
 redistribute it under the constitution of the GNU-GPL.
*******************************************************
*******************************************************

Automatic determination of Kerker_factor:   3.992945286074


<Input_std>  Your input file was normally read.
<Input_std>  The system includes 2 species and 131 atoms.

*******************************************************
                     PAO and VPS                       
*******************************************************

<SetPara_DFT>  PAOs of species C were normally found.
<SetPara_DFT>  PAOs of species O were normally found.
<SetPara_DFT>  VPSs of species C were normally found.
               C_PBE19.vps is j-dependent.
               In case of scf.SpinOrbit.Coupling=off,
               j-dependent pseudo potentials are averaged by j-degeneracy,
               which corresponds to a scalar relativistic treatment.
<SetPara_DFT>  VPSs of species O were normally found.
               O_PBE19.vps is j-dependent.
               In case of scf.SpinOrbit.Coupling=off,
               j-dependent pseudo potentials are averaged by j-degeneracy,
               which corresponds to a scalar relativistic treatment.

*******************************************************
     Fourier transform of PAO and projectors of VNL    
*******************************************************

<FT_PAO>          Fourier transform of pseudo atomic orbitals
<FT_NLP>          Fourier transform of non-local projectors
<FT_ProExpn_VNA>  Fourier transform of VNA separable projectors
<FT_VNA>          Fourier transform of VNA potentials
<FT_ProductPAO>   Fourier transform of product of PAOs

*******************************************************
  Allocation of atoms to processors at MD_iter=    1     
*******************************************************

 proc =   0  # of atoms=   2  estimated weight=         2.00000
 proc =   1  # of atoms=   2  estimated weight=         2.00000
 proc =   2  # of atoms=   2  estimated weight=         2.00000
 proc =   3  # of atoms=   2  estimated weight=         2.00000
 proc =   4  # of atoms=   2  estimated weight=         2.00000
 proc =   5  # of atoms=   2  estimated weight=         2.00000
 proc =   6  # of atoms=   2  estimated weight=         2.00000
 proc =   7  # of atoms=   2  estimated weight=         2.00000
 proc =   8  # of atoms=   2  estimated weight=         2.00000
 proc =   9  # of atoms=   2  estimated weight=         2.00000
 proc =  10  # of atoms=   2  estimated weight=         2.00000
 proc =  11  # of atoms=   2  estimated weight=         2.00000
 proc =  12  # of atoms=   2  estimated weight=         2.00000
 proc =  13  # of atoms=   2  estimated weight=         2.00000
 proc =  14  # of atoms=   2  estimated weight=         2.00000
 proc =  15  # of atoms=   2  estimated weight=         2.00000
 proc =  16  # of atoms=   2  estimated weight=         2.00000
 proc =  17  # of atoms=   2  estimated weight=         2.00000
 proc =  18  # of atoms=   2  estimated weight=         2.00000
 proc =  19  # of atoms=   2  estimated weight=         2.00000
 proc =  20  # of atoms=   2  estimated weight=         2.00000
 proc =  21  # of atoms=   2  estimated weight=         2.00000
 proc =  22  # of atoms=   2  estimated weight=         2.00000
 proc =  23  # of atoms=   2  estimated weight=         2.00000
 proc =  24  # of atoms=   2  estimated weight=         2.00000
 proc =  25  # of atoms=   2  estimated weight=         2.00000
 proc =  26  # of atoms=   2  estimated weight=         2.00000
 proc =  27  # of atoms=   2  estimated weight=         2.00000
 proc =  28  # of atoms=   2  estimated weight=         2.00000
 proc =  29  # of atoms=   2  estimated weight=         2.00000
 proc =  30  # of atoms=   2  estimated weight=         2.00000
 proc =  31  # of atoms=   3  estimated weight=         3.00000
 proc =  32  # of atoms=   2  estimated weight=         2.00000
 proc =  33  # of atoms=   2  estimated weight=         2.00000
 proc =  34  # of atoms=   2  estimated weight=         2.00000
 proc =  35  # of atoms=   2  estimated weight=         2.00000
 proc =  36  # of atoms=   2  estimated weight=         2.00000
 proc =  37  # of atoms=   2  estimated weight=         2.00000
 proc =  38  # of atoms=   2  estimated weight=         2.00000
 proc =  39  # of atoms=   2  estimated weight=         2.00000
 proc =  40  # of atoms=   2  estimated weight=         2.00000
 proc =  41  # of atoms=   2  estimated weight=         2.00000
 proc =  42  # of atoms=   2  estimated weight=         2.00000
 proc =  43  # of atoms=   2  estimated weight=         2.00000
 proc =  44  # of atoms=   2  estimated weight=         2.00000
 proc =  45  # of atoms=   2  estimated weight=         2.00000
 proc =  46  # of atoms=   2  estimated weight=         2.00000
 proc =  47  # of atoms=   3  estimated weight=         3.00000
 proc =  48  # of atoms=   2  estimated weight=         2.00000
 proc =  49  # of atoms=   2  estimated weight=         2.00000
 proc =  50  # of atoms=   2  estimated weight=         2.00000
 proc =  51  # of atoms=   2  estimated weight=         2.00000
 proc =  52  # of atoms=   2  estimated weight=         2.00000
 proc =  53  # of atoms=   2  estimated weight=         2.00000
 proc =  54  # of atoms=   2  estimated weight=         2.00000
 proc =  55  # of atoms=   2  estimated weight=         2.00000
 proc =  56  # of atoms=   2  estimated weight=         2.00000
 proc =  57  # of atoms=   2  estimated weight=         2.00000
 proc =  58  # of atoms=   2  estimated weight=         2.00000
 proc =  59  # of atoms=   2  estimated weight=         2.00000
 proc =  60  # of atoms=   2  estimated weight=         2.00000
 proc =  61  # of atoms=   2  estimated weight=         2.00000
 proc =  62  # of atoms=   2  estimated weight=         2.00000
 proc =  63  # of atoms=   3  estimated weight=         3.00000




*******************************************************
        Analysis of neighbors and setting of grids        
*******************************************************

TFNAN=    5994   Average FNAN=  45.75573
TSNAN=       0   Average SNAN=   0.00000
<truncation> CpyCell= 1 ct_AN=   1 FNAN SNAN  45   0
<truncation> CpyCell= 1 ct_AN=   2 FNAN SNAN  45   0
<truncation> CpyCell= 1 ct_AN=   3 FNAN SNAN  45   0
<truncation> CpyCell= 1 ct_AN=   4 FNAN SNAN  45   0
<truncation> CpyCell= 1 ct_AN=   5 FNAN SNAN  45   0
<truncation> CpyCell= 1 ct_AN=   6 FNAN SNAN  45   0
<truncation> CpyCell= 1 ct_AN=   7 FNAN SNAN  45   0
<truncation> CpyCell= 1 ct_AN=   8 FNAN SNAN  45   0
<truncation> CpyCell= 1 ct_AN=   9 FNAN SNAN  45   0
<truncation> CpyCell= 1 ct_AN=  10 FNAN SNAN  45   0
<truncation> CpyCell= 1 ct_AN=  11 FNAN SNAN  46   0
<truncation> CpyCell= 1 ct_AN=  12 FNAN SNAN  46   0
<truncation> CpyCell= 1 ct_AN=  13 FNAN SNAN  45   0
<truncation> CpyCell= 1 ct_AN=  14 FNAN SNAN  45   0
<truncation> CpyCell= 1 ct_AN=  15 FNAN SNAN  45   0
<truncation> CpyCell= 1 ct_AN=  16 FNAN SNAN  45   0
<truncation> CpyCell= 1 ct_AN=  17 FNAN SNAN  45   0
<truncation> CpyCell= 1 ct_AN=  18 FNAN SNAN  48   0
<truncation> CpyCell= 1 ct_AN=  19 FNAN SNAN  48   0
<truncation> CpyCell= 1 ct_AN=  20 FNAN SNAN  48   0
     ..........
     ......

TFNAN=    5994   Average FNAN=  45.75573
TSNAN=       0   Average SNAN=   0.00000
<truncation> CpyCell= 2 ct_AN=   1 FNAN SNAN  45   0
<truncation> CpyCell= 2 ct_AN=   2 FNAN SNAN  45   0
<truncation> CpyCell= 2 ct_AN=   3 FNAN SNAN  45   0
<truncation> CpyCell= 2 ct_AN=   4 FNAN SNAN  45   0
<truncation> CpyCell= 2 ct_AN=   5 FNAN SNAN  45   0
<truncation> CpyCell= 2 ct_AN=   6 FNAN SNAN  45   0
<truncation> CpyCell= 2 ct_AN=   7 FNAN SNAN  45   0
<truncation> CpyCell= 2 ct_AN=   8 FNAN SNAN  45   0
<truncation> CpyCell= 2 ct_AN=   9 FNAN SNAN  45   0
<truncation> CpyCell= 2 ct_AN=  10 FNAN SNAN  45   0
<truncation> CpyCell= 2 ct_AN=  11 FNAN SNAN  46   0
<truncation> CpyCell= 2 ct_AN=  12 FNAN SNAN  46   0
<truncation> CpyCell= 2 ct_AN=  13 FNAN SNAN  45   0
<truncation> CpyCell= 2 ct_AN=  14 FNAN SNAN  45   0
<truncation> CpyCell= 2 ct_AN=  15 FNAN SNAN  45   0
<truncation> CpyCell= 2 ct_AN=  16 FNAN SNAN  45   0
<truncation> CpyCell= 2 ct_AN=  17 FNAN SNAN  45   0
<truncation> CpyCell= 2 ct_AN=  18 FNAN SNAN  48   0
<truncation> CpyCell= 2 ct_AN=  19 FNAN SNAN  48   0
<truncation> CpyCell= 2 ct_AN=  20 FNAN SNAN  48   0
     ..........
     ......

TFNAN=    5994   Average FNAN=  45.75573
TSNAN=       0   Average SNAN=   0.00000
<truncation> CpyCell= 2 ct_AN=   1 FNAN SNAN  45   0
<truncation> CpyCell= 2 ct_AN=   2 FNAN SNAN  45   0
<truncation> CpyCell= 2 ct_AN=   3 FNAN SNAN  45   0
<truncation> CpyCell= 2 ct_AN=   4 FNAN SNAN  45   0
<truncation> CpyCell= 2 ct_AN=   5 FNAN SNAN  45   0
<truncation> CpyCell= 2 ct_AN=   6 FNAN SNAN  45   0
<truncation> CpyCell= 2 ct_AN=   7 FNAN SNAN  45   0
<truncation> CpyCell= 2 ct_AN=   8 FNAN SNAN  45   0
<truncation> CpyCell= 2 ct_AN=   9 FNAN SNAN  45   0
<truncation> CpyCell= 2 ct_AN=  10 FNAN SNAN  45   0
<truncation> CpyCell= 2 ct_AN=  11 FNAN SNAN  46   0
<truncation> CpyCell= 2 ct_AN=  12 FNAN SNAN  46   0
<truncation> CpyCell= 2 ct_AN=  13 FNAN SNAN  45   0
<truncation> CpyCell= 2 ct_AN=  14 FNAN SNAN  45   0
<truncation> CpyCell= 2 ct_AN=  15 FNAN SNAN  45   0
<truncation> CpyCell= 2 ct_AN=  16 FNAN SNAN  45   0
<truncation> CpyCell= 2 ct_AN=  17 FNAN SNAN  45   0
<truncation> CpyCell= 2 ct_AN=  18 FNAN SNAN  48   0
<truncation> CpyCell= 2 ct_AN=  19 FNAN SNAN  48   0
<truncation> CpyCell= 2 ct_AN=  20 FNAN SNAN  48   0
     ..........
     ......

<Check_System> The system is slab.
lattice vectors (bohr)
A  = 37.299978480367,  0.000000000000,  0.000000000000
B  = -18.649989240184, 32.302728872609,  0.000000000000
C  =  0.000000000000,  0.000000000000, 39.684245760157
reciprocal lattice vectors (bohr^-1)
RA =  0.168450105420,  0.097254713866, -0.000000000000
RB =  0.000000000000,  0.194509427732,  0.000000000000
RC =  0.000000000000, -0.000000000000,  0.158329462658
Grid_Origin  0.051805525667  0.089729815407  0.221690053204
Cell_Volume =  47815.194201431834 (Bohr^3)
GridVol     =      0.006832303698 (Bohr^3)
Grid_Origin  0.051805525667  0.089729815407  0.221690053204
Cell_Volume =  47815.194201431834 (Bohr^3)
GridVol     =      0.006832303698 (Bohr^3)
<UCell_Box> Info. of cutoff energy and num. of grids
lattice vectors (bohr)
A  = 37.299978480367,  0.000000000000,  0.000000000000
B  = -18.649989240184, 32.302728872609,  0.000000000000
C  =  0.000000000000,  0.000000000000, 39.684245760157
reciprocal lattice vectors (bohr^-1)
RA =  0.168450105420,  0.097254713866, -0.000000000000
RB =  0.000000000000,  0.194509427732,  0.000000000000
RC =  0.000000000000, -0.000000000000,  0.158329462658
Required cutoff energy (Ryd) for 3D-grids = 300.0000
    Used cutoff energy (Ryd) for 3D-grids = 306.4547, 306.4547, 292.3957
Num. of grids of a-, b-, and c-axes = 180, 180, 216
Grid_Origin  0.051805525667  0.089729815407  0.221690053204
Cell_Volume =  47815.194201431834 (Bohr^3)
GridVol     =      0.006832303698 (Bohr^3)
Cell vectors (bohr) of the grid cell (gtv)
  gtv_a =  0.207222102669,  0.000000000000,  0.000000000000
  gtv_b = -0.103611051334,  0.179459604848,  0.000000000000
  gtv_c =  0.000000000000,  0.000000000000,  0.183723360001
  |gtv_a| =  0.207222102669
  |gtv_b| =  0.207222102419
  |gtv_c| =  0.183723360001
Num. of grids overlapping with atom    1 = 132386
Num. of grids overlapping with atom    2 = 132521
Num. of grids overlapping with atom    3 = 132386
Num. of grids overlapping with atom    4 = 132521
Num. of grids overlapping with atom    5 = 132386
Num. of grids overlapping with atom    6 = 132521
Num. of grids overlapping with atom    7 = 132386
Num. of grids overlapping with atom    8 = 132521
Num. of grids overlapping with atom    9 = 132383
Num. of grids overlapping with atom   10 = 132383
Num. of grids overlapping with atom   11 = 132383
Num. of grids overlapping with atom   12 = 132383
Num. of grids overlapping with atom   13 = 132383
Num. of grids overlapping with atom   14 = 132383
Num. of grids overlapping with atom   15 = 132383
Num. of grids overlapping with atom   16 = 132383
Num. of grids overlapping with atom   17 = 132386
Num. of grids overlapping with atom   18 = 132521
Num. of grids overlapping with atom   19 = 132386
Num. of grids overlapping with atom   20 = 132521
     ..........
     ......


*******************************************************
             SCF calculation at MD = 1                
*******************************************************

<MD= 1>  Calculation of the overlap matrix
<MD= 1>  Calculation of the nonlocal matrix
<MD= 1>  Calculation of the VNA projector matrix

******************* MD= 1  SCF= 1 *******************
<Band>  Solving the eigenvalue problem...
 KGrids1:  -0.43750  -0.31250  -0.18750  -0.06250   0.06250   0.18750   0.31250   0.43750 
 KGrids2:  -0.43750  -0.31250  -0.18750  -0.06250   0.06250   0.18750   0.31250   0.43750 
 KGrids3:   0.00000 
<Band_DFT>  Eigen, time=24.077510
<Band_DFT>  DM, time=0.000009
    1    C  MulP   2.0000  2.0000 sum   4.0001
    2    C  MulP   1.9998  1.9998 sum   3.9996
    3    C  MulP   2.0000  2.0000 sum   4.0001
    4    C  MulP   1.9998  1.9998 sum   3.9997
    5    C  MulP   2.0000  2.0000 sum   4.0001
    6    C  MulP   1.9998  1.9998 sum   3.9997
    7    C  MulP   2.0000  2.0000 sum   4.0001
    8    C  MulP   1.9998  1.9998 sum   3.9997
    9    C  MulP   2.0000  2.0000 sum   4.0001
   10    C  MulP   2.0000  2.0000 sum   3.9999
   11    C  MulP   2.0000  2.0000 sum   4.0001
   12    C  MulP   2.0000  2.0000 sum   4.0000
   13    C  MulP   2.0000  2.0000 sum   4.0000
   14    C  MulP   2.0000  2.0000 sum   4.0001
   15    C  MulP   2.0000  2.0000 sum   4.0001
   16    C  MulP   2.0000  2.0000 sum   4.0001
   17    C  MulP   2.0001  2.0001 sum   4.0001
   18    C  MulP   1.9995  1.9995 sum   3.9991
   19    C  MulP   2.0015  2.0015 sum   4.0029
   20    C  MulP   2.0009  2.0009 sum   4.0019
     ..........
     ......

 Sum of MulP: up   =   264.00000 down          =   264.00000
              total=   528.00000 ideal(neutral)=   528.00000
<DFT>  Total Spin Moment (muB) =  0.000000000000
<DFT>  Mixing_weight= 0.050000000000
<DFT>  Uele   = -216.768671860553  dUele     =   1.000000000000
<DFT>  NormRD =    1.000000000000  Criterion =   0.000000010000

******************* MD= 1  SCF= 2 *******************
<Poisson>  Poisson's equation using FFT...
<Set_Hamiltonian>  Hamiltonian matrix for VNA+dVH+Vxc...
<Band>  Solving the eigenvalue problem...
 KGrids1:  -0.43750  -0.31250  -0.18750  -0.06250   0.06250   0.18750   0.31250   0.43750 
 KGrids2:  -0.43750  -0.31250  -0.18750  -0.06250   0.06250   0.18750   0.31250   0.43750 
 KGrids3:   0.00000 
<Band_DFT>  Eigen, time=14.042381
<Band_DFT>  DM, time=0.000000
    1    C  MulP   2.0000  2.0000 sum   4.0001
    2    C  MulP   1.9998  1.9998 sum   3.9996
    3    C  MulP   2.0000  2.0000 sum   4.0001
    4    C  MulP   1.9998  1.9998 sum   3.9997
    5    C  MulP   2.0000  2.0000 sum   4.0001
    6    C  MulP   1.9998  1.9998 sum   3.9997
    7    C  MulP   2.0000  2.0000 sum   4.0001
    8    C  MulP   1.9998  1.9998 sum   3.9997
    9    C  MulP   2.0000  2.0000 sum   4.0001
   10    C  MulP   2.0000  2.0000 sum   3.9999
   11    C  MulP   2.0000  2.0000 sum   4.0001
   12    C  MulP   2.0000  2.0000 sum   4.0000
   13    C  MulP   2.0000  2.0000 sum   4.0000
   14    C  MulP   2.0000  2.0000 sum   4.0001
   15    C  MulP   2.0000  2.0000 sum   4.0001
   16    C  MulP   2.0000  2.0000 sum   4.0001
   17    C  MulP   2.0001  2.0001 sum   4.0001
   18    C  MulP   1.9995  1.9995 sum   3.9991
   19    C  MulP   2.0015  2.0015 sum   4.0029
   20    C  MulP   2.0009  2.0009 sum   4.0019
     ..........
     ......

 Sum of MulP: up   =   264.00000 down          =   264.00000
              total=   528.00000 ideal(neutral)=   528.00000
<DFT>  Total Spin Moment (muB) =  0.000000000000
<DFT>  Mixing_weight= 0.010000000000
<DFT>  Uele   = -216.768671860553  dUele     =   0.000000000000
<DFT>  NormRD =   10.212156794805  Criterion =   0.000000010000

******************* MD= 1  SCF= 3 *******************
<Poisson>  Poisson's equation using FFT...
<Set_Hamiltonian>  Hamiltonian matrix for VNA+dVH+Vxc...
<Band>  Solving the eigenvalue problem...
 KGrids1:  -0.43750  -0.31250  -0.18750  -0.06250   0.06250   0.18750   0.31250   0.43750 
 KGrids2:  -0.43750  -0.31250  -0.18750  -0.06250   0.06250   0.18750   0.31250   0.43750 
 KGrids3:   0.00000 
<Band_DFT>  Eigen, time=14.026597
<Band_DFT>  DM, time=0.000000
    1    C  MulP   2.0000  2.0000 sum   4.0001
    2    C  MulP   1.9998  1.9998 sum   3.9996
    3    C  MulP   2.0000  2.0000 sum   4.0001
    4    C  MulP   1.9998  1.9998 sum   3.9997
    5    C  MulP   2.0000  2.0000 sum   4.0001
    6    C  MulP   1.9998  1.9998 sum   3.9997
    7    C  MulP   2.0000  2.0000 sum   4.0001
    8    C  MulP   1.9998  1.9998 sum   3.9997
    9    C  MulP   2.0000  2.0000 sum   4.0001
   10    C  MulP   2.0000  2.0000 sum   3.9999
   11    C  MulP   2.0000  2.0000 sum   4.0001
   12    C  MulP   2.0000  2.0000 sum   4.0000
   13    C  MulP   2.0000  2.0000 sum   4.0000
   14    C  MulP   2.0000  2.0000 sum   4.0001
   15    C  MulP   2.0000  2.0000 sum   4.0001
   16    C  MulP   2.0000  2.0000 sum   4.0001
   17    C  MulP   2.0001  2.0001 sum   4.0001
   18    C  MulP   1.9995  1.9995 sum   3.9991
   19    C  MulP   2.0015  2.0015 sum   4.0029
   20    C  MulP   2.0009  2.0009 sum   4.0018
     ..........
     ......

 Sum of MulP: up   =   264.00000 down          =   264.00000
              total=   528.00000 ideal(neutral)=   528.00000
<DFT>  Total Spin Moment (muB) =  0.000000000000
<DFT>  Mixing_weight= 0.300000000000
<DFT>  Uele   = -217.153819785688  dUele     =   0.385147925135
<DFT>  NormRD =   10.087389798983  Criterion =   0.000000010000

******************* MD= 1  SCF= 4 *******************
<Poisson>  Poisson's equation using FFT...
<Set_Hamiltonian>  Hamiltonian matrix for VNA+dVH+Vxc...
<Band>  Solving the eigenvalue problem...
 KGrids1:  -0.43750  -0.31250  -0.18750  -0.06250   0.06250   0.18750   0.31250   0.43750 
 KGrids2:  -0.43750  -0.31250  -0.18750  -0.06250   0.06250   0.18750   0.31250   0.43750 
 KGrids3:   0.00000 
<Band_DFT>  Eigen, time=13.990857
<Band_DFT>  DM, time=0.000000
    1    C  MulP   2.0000  2.0000 sum   4.0000
    2    C  MulP   1.9997  1.9997 sum   3.9994
    3    C  MulP   2.0000  2.0000 sum   3.9999
    4    C  MulP   1.9998  1.9998 sum   3.9996
    5    C  MulP   2.0000  2.0000 sum   4.0000
    6    C  MulP   1.9998  1.9998 sum   3.9996
    7    C  MulP   2.0000  2.0000 sum   4.0001
    8    C  MulP   1.9998  1.9998 sum   3.9997
    9    C  MulP   2.0000  2.0000 sum   4.0001
   10    C  MulP   2.0000  2.0000 sum   3.9999
   11    C  MulP   1.9999  1.9999 sum   3.9998
   12    C  MulP   1.9999  1.9999 sum   3.9997
   13    C  MulP   1.9999  1.9999 sum   3.9999
   14    C  MulP   2.0000  2.0000 sum   4.0000
   15    C  MulP   2.0000  2.0000 sum   4.0000
   16    C  MulP   2.0000  2.0000 sum   4.0001
   17    C  MulP   2.0000  2.0000 sum   4.0001
   18    C  MulP   1.9996  1.9996 sum   3.9992
   19    C  MulP   2.0018  2.0018 sum   4.0036
   20    C  MulP   2.0001  2.0001 sum   4.0003
     ..........
     ......

 Sum of MulP: up   =   264.00000 down          =   264.00000
              total=   528.00000 ideal(neutral)=   528.00000
<DFT>  Total Spin Moment (muB) =  0.000000000000
<DFT>  Mixing_weight= 0.300000000000
<DFT>  Uele   = -228.588666498297  dUele     =  11.434846712608
<DFT>  NormRD =    6.525596623099  Criterion =   0.000000010000

******************* MD= 1  SCF= 5 *******************
<Poisson>  Poisson's equation using FFT...
<Set_Hamiltonian>  Hamiltonian matrix for VNA+dVH+Vxc...
<Band>  Solving the eigenvalue problem...
 KGrids1:  -0.43750  -0.31250  -0.18750  -0.06250   0.06250   0.18750   0.31250   0.43750 
 KGrids2:  -0.43750  -0.31250  -0.18750  -0.06250   0.06250   0.18750   0.31250   0.43750 
 KGrids3:   0.00000 
<Band_DFT>  Eigen, time=14.004036
<Band_DFT>  DM, time=0.000000
    1    C  MulP   2.0000  2.0000 sum   4.0000
    2    C  MulP   1.9998  1.9998 sum   3.9996
    3    C  MulP   2.0000  2.0000 sum   4.0000
    4    C  MulP   1.9998  1.9998 sum   3.9995
    5    C  MulP   2.0000  2.0000 sum   4.0000
    6    C  MulP   1.9998  1.9998 sum   3.9996
    7    C  MulP   2.0000  2.0000 sum   4.0000
    8    C  MulP   1.9998  1.9998 sum   3.9996
    9    C  MulP   2.0000  2.0000 sum   4.0001
   10    C  MulP   2.0000  2.0000 sum   4.0000
   11    C  MulP   2.0000  2.0000 sum   4.0000
   12    C  MulP   1.9999  1.9999 sum   3.9998
   13    C  MulP   1.9999  1.9999 sum   3.9998
   14    C  MulP   2.0000  2.0000 sum   4.0000
   15    C  MulP   2.0000  2.0000 sum   4.0000
   16    C  MulP   2.0000  2.0000 sum   4.0000
   17    C  MulP   2.0000  2.0000 sum   4.0001
   18    C  MulP   1.9996  1.9996 sum   3.9993
   19    C  MulP   2.0017  2.0017 sum   4.0035
   20    C  MulP   2.0003  2.0003 sum   4.0006
     ..........
     ......

 Sum of MulP: up   =   264.00000 down          =   264.00000
              total=   528.00000 ideal(neutral)=   528.00000
<DFT>  Total Spin Moment (muB) =  0.000000000000
<DFT>  Mixing_weight= 0.300000000000
<DFT>  Uele   = -236.136524826261  dUele     =   7.547858327964
<DFT>  NormRD =    4.409928405736  Criterion =   0.000000010000

******************* MD= 1  SCF= 6 *******************
<Poisson>  Poisson's equation using FFT...
<Set_Hamiltonian>  Hamiltonian matrix for VNA+dVH+Vxc...
<Band>  Solving the eigenvalue problem...
 KGrids1:  -0.43750  -0.31250  -0.18750  -0.06250   0.06250   0.18750   0.31250   0.43750 
 KGrids2:  -0.43750  -0.31250  -0.18750  -0.06250   0.06250   0.18750   0.31250   0.43750 
 KGrids3:   0.00000 
<Band_DFT>  Eigen, time=14.038351
<Band_DFT>  DM, time=0.000001
    1    C  MulP   2.0000  2.0000 sum   4.0001
    2    C  MulP   1.9998  1.9998 sum   3.9996
    3    C  MulP   2.0000  2.0000 sum   4.0000
    4    C  MulP   1.9998  1.9998 sum   3.9995
    5    C  MulP   2.0000  2.0000 sum   4.0000
    6    C  MulP   1.9998  1.9998 sum   3.9996
    7    C  MulP   2.0000  2.0000 sum   4.0000
    8    C  MulP   1.9998  1.9998 sum   3.9996
    9    C  MulP   2.0000  2.0000 sum   4.0001
   10    C  MulP   2.0000  2.0000 sum   4.0000
   11    C  MulP   2.0001  2.0001 sum   4.0001
   12    C  MulP   1.9999  1.9999 sum   3.9999
   13    C  MulP   1.9999  1.9999 sum   3.9999
   14    C  MulP   2.0000  2.0000 sum   4.0000
   15    C  MulP   2.0000  2.0000 sum   4.0000
   16    C  MulP   2.0000  2.0000 sum   4.0000
   17    C  MulP   2.0000  2.0000 sum   4.0001
   18    C  MulP   1.9996  1.9996 sum   3.9993
   19    C  MulP   2.0017  2.0017 sum   4.0034
   20    C  MulP   2.0004  2.0004 sum   4.0007
     ..........
     ......

 Sum of MulP: up   =   264.00000 down          =   264.00000
              total=   528.00000 ideal(neutral)=   528.00000
<DFT>  Total Spin Moment (muB) =  0.000000000000
<DFT>  Mixing_weight= 0.300000000000
<DFT>  Uele   = -241.097033882222  dUele     =   4.960509055961
<DFT>  NormRD =    3.005075579186  Criterion =   0.000000010000

******************* MD= 1  SCF= 7 *******************
<Poisson>  Poisson's equation using FFT...
<Set_Hamiltonian>  Hamiltonian matrix for VNA+dVH+Vxc...
<Band>  Solving the eigenvalue problem...
 KGrids1:  -0.43750  -0.31250  -0.18750  -0.06250   0.06250   0.18750   0.31250   0.43750 
 KGrids2:  -0.43750  -0.31250  -0.18750  -0.06250   0.06250   0.18750   0.31250   0.43750 
 KGrids3:   0.00000 
<Band_DFT>  Eigen, time=14.007720
<Band_DFT>  DM, time=0.000000
    1    C  MulP   2.0000  2.0000 sum   4.0001
    2    C  MulP   1.9998  1.9998 sum   3.9996
    3    C  MulP   2.0000  2.0000 sum   4.0000
    4    C  MulP   1.9998  1.9998 sum   3.9996
    5    C  MulP   2.0000  2.0000 sum   4.0000
    6    C  MulP   1.9998  1.9998 sum   3.9996
    7    C  MulP   2.0000  2.0000 sum   4.0000
    8    C  MulP   1.9998  1.9998 sum   3.9996
    9    C  MulP   2.0000  2.0000 sum   4.0001
   10    C  MulP   2.0000  2.0000 sum   4.0000
   11    C  MulP   2.0001  2.0001 sum   4.0001
   12    C  MulP   1.9999  1.9999 sum   3.9999
   13    C  MulP   2.0000  2.0000 sum   3.9999
   14    C  MulP   2.0000  2.0000 sum   4.0000
   15    C  MulP   2.0000  2.0000 sum   4.0000
   16    C  MulP   2.0000  2.0000 sum   4.0000
   17    C  MulP   2.0000  2.0000 sum   4.0001
   18    C  MulP   1.9996  1.9996 sum   3.9993
   19    C  MulP   2.0017  2.0017 sum   4.0033
   20    C  MulP   2.0003  2.0003 sum   4.0007
     ..........
     ......

 Sum of MulP: up   =   264.00000 down          =   264.00000
              total=   528.00000 ideal(neutral)=   528.00000
<DFT>  Total Spin Moment (muB) =  0.000000000000
<DFT>  Mixing_weight= 0.300000000000
<DFT>  Uele   = -244.415006154655  dUele     =   3.317972272434
<DFT>  NormRD =    2.057958387565  Criterion =   0.000000010000

******************* MD= 1  SCF= 8 *******************
<Poisson>  Poisson's equation using FFT...
<Set_Hamiltonian>  Hamiltonian matrix for VNA+dVH+Vxc...
<Band>  Solving the eigenvalue problem...
 KGrids1:  -0.43750  -0.31250  -0.18750  -0.06250   0.06250   0.18750   0.31250   0.43750 
 KGrids2:  -0.43750  -0.31250  -0.18750  -0.06250   0.06250   0.18750   0.31250   0.43750 
 KGrids3:   0.00000 
<Band_DFT>  Eigen, time=14.038325
<Band_DFT>  DM, time=0.000000
    1    C  MulP   2.0000  2.0000 sum   4.0001
    2    C  MulP   1.9998  1.9998 sum   3.9996
    3    C  MulP   2.0000  2.0000 sum   4.0000
    4    C  MulP   1.9998  1.9998 sum   3.9996
    5    C  MulP   2.0000  2.0000 sum   4.0000
    6    C  MulP   1.9998  1.9998 sum   3.9996
    7    C  MulP   2.0000  2.0000 sum   4.0001
    8    C  MulP   1.9998  1.9998 sum   3.9996
    9    C  MulP   2.0000  2.0000 sum   4.0001
   10    C  MulP   2.0000  2.0000 sum   4.0000
   11    C  MulP   2.0001  2.0001 sum   4.0001
   12    C  MulP   2.0000  2.0000 sum   3.9999
   13    C  MulP   2.0000  2.0000 sum   3.9999
   14    C  MulP   2.0000  2.0000 sum   4.0000
   15    C  MulP   2.0000  2.0000 sum   4.0000
   16    C  MulP   2.0000  2.0000 sum   4.0001
   17    C  MulP   2.0000  2.0000 sum   4.0001
   18    C  MulP   1.9996  1.9996 sum   3.9993
   19    C  MulP   2.0017  2.0017 sum   4.0033
   20    C  MulP   2.0003  2.0003 sum   4.0007
     ..........
     ......

 Sum of MulP: up   =   264.00000 down          =   264.00000
              total=   528.00000 ideal(neutral)=   528.00000
<DFT>  Total Spin Moment (muB) =  0.000000000000
<DFT>  Mixing_weight= 0.300000000000
<DFT>  Uele   = -246.691018173138  dUele     =   2.276012018483
<DFT>  NormRD =    1.415444117202  Criterion =   0.000000010000

******************* MD= 1  SCF= 9 *******************
<Poisson>  Poisson's equation using FFT...
<Set_Hamiltonian>  Hamiltonian matrix for VNA+dVH+Vxc...
<Band>  Solving the eigenvalue problem...
 KGrids1:  -0.43750  -0.31250  -0.18750  -0.06250   0.06250   0.18750   0.31250   0.43750 
 KGrids2:  -0.43750  -0.31250  -0.18750  -0.06250   0.06250   0.18750   0.31250   0.43750 
 KGrids3:   0.00000 
<Band_DFT>  Eigen, time=14.000934
<Band_DFT>  DM, time=0.000000
    1    C  MulP   2.0000  2.0000 sum   4.0001
    2    C  MulP   1.9998  1.9998 sum   3.9996
    3    C  MulP   2.0000  2.0000 sum   4.0000
    4    C  MulP   1.9998  1.9998 sum   3.9996
    5    C  MulP   2.0000  2.0000 sum   4.0000
    6    C  MulP   1.9998  1.9998 sum   3.9996
    7    C  MulP   2.0000  2.0000 sum   4.0001
    8    C  MulP   1.9998  1.9998 sum   3.9996
    9    C  MulP   2.0000  2.0000 sum   4.0001
   10    C  MulP   2.0000  2.0000 sum   4.0001
   11    C  MulP   2.0001  2.0001 sum   4.0001
   12    C  MulP   2.0000  2.0000 sum   3.9999
   13    C  MulP   2.0000  2.0000 sum   3.9999
   14    C  MulP   2.0000  2.0000 sum   4.0000
   15    C  MulP   2.0000  2.0000 sum   4.0000
   16    C  MulP   2.0000  2.0000 sum   4.0001
   17    C  MulP   2.0000  2.0000 sum   4.0001
   18    C  MulP   1.9996  1.9996 sum   3.9993
   19    C  MulP   2.0017  2.0017 sum   4.0033
   20    C  MulP   2.0003  2.0003 sum   4.0007
     ..........
     ......

 Sum of MulP: up   =   264.00000 down          =   264.00000
              total=   528.00000 ideal(neutral)=   528.00000
<DFT>  Total Spin Moment (muB) =  0.000000000000
<DFT>  Mixing_weight= 0.300000000000
<DFT>  Uele   = -248.297194556248  dUele     =   1.606176383110
<DFT>  NormRD =    0.977190880745  Criterion =   0.000000010000

******************* MD= 1  SCF=10 *******************
<Poisson>  Poisson's equation using FFT...
<Set_Hamiltonian>  Hamiltonian matrix for VNA+dVH+Vxc...
<Band>  Solving the eigenvalue problem...
 KGrids1:  -0.43750  -0.31250  -0.18750  -0.06250   0.06250   0.18750   0.31250   0.43750 
 KGrids2:  -0.43750  -0.31250  -0.18750  -0.06250   0.06250   0.18750   0.31250   0.43750 
 KGrids3:   0.00000 
<Band_DFT>  Eigen, time=14.018753
<Band_DFT>  DM, time=0.000000
    1    C  MulP   2.0000  2.0000 sum   4.0001
    2    C  MulP   1.9998  1.9998 sum   3.9996
    3    C  MulP   2.0000  2.0000 sum   4.0000
    4    C  MulP   1.9998  1.9998 sum   3.9996
    5    C  MulP   2.0000  2.0000 sum   4.0000
    6    C  MulP   1.9998  1.9998 sum   3.9996
    7    C  MulP   2.0000  2.0000 sum   4.0001
    8    C  MulP   1.9998  1.9998 sum   3.9996
    9    C  MulP   2.0000  2.0000 sum   4.0001
   10    C  MulP   2.0000  2.0000 sum   4.0001
   11    C  MulP   2.0001  2.0001 sum   4.0001
   12    C  MulP   2.0000  2.0000 sum   3.9999
   13    C  MulP   2.0000  2.0000 sum   3.9999
   14    C  MulP   2.0000  2.0000 sum   4.0000
   15    C  MulP   2.0000  2.0000 sum   4.0000
   16    C  MulP   2.0000  2.0000 sum   4.0001
   17    C  MulP   2.0000  2.0000 sum   4.0001
   18    C  MulP   1.9997  1.9997 sum   3.9993
   19    C  MulP   2.0017  2.0017 sum   4.0033
   20    C  MulP   2.0003  2.0003 sum   4.0007
     ..........
     ......

 Sum of MulP: up   =   264.00000 down          =   264.00000
              total=   528.00000 ideal(neutral)=   528.00000
<DFT>  Total Spin Moment (muB) =  0.000000000000
<DFT>  Mixing_weight= 0.300000000000
<DFT>  Uele   = -249.464823883857  dUele     =   1.167629327608
<DFT>  NormRD =    0.676890233341  Criterion =   0.000000010000

******************* MD= 1  SCF=11 *******************
<Poisson>  Poisson's equation using FFT...
<Set_Hamiltonian>  Hamiltonian matrix for VNA+dVH+Vxc...
<Band>  Solving the eigenvalue problem...
 KGrids1:  -0.43750  -0.31250  -0.18750  -0.06250   0.06250   0.18750   0.31250   0.43750 
 KGrids2:  -0.43750  -0.31250  -0.18750  -0.06250   0.06250   0.18750   0.31250   0.43750 
 KGrids3:   0.00000 
<Band_DFT>  Eigen, time=13.990086
<Band_DFT>  DM, time=0.000000
    1    C  MulP   2.0000  2.0000 sum   4.0001
    2    C  MulP   1.9998  1.9998 sum   3.9996
    3    C  MulP   2.0000  2.0000 sum   4.0000
    4    C  MulP   1.9998  1.9998 sum   3.9996
    5    C  MulP   2.0000  2.0000 sum   4.0000
    6    C  MulP   1.9998  1.9998 sum   3.9996
    7    C  MulP   2.0000  2.0000 sum   4.0001
    8    C  MulP   1.9998  1.9998 sum   3.9996
    9    C  MulP   2.0000  2.0000 sum   4.0001
   10    C  MulP   2.0000  2.0000 sum   4.0001
   11    C  MulP   2.0001  2.0001 sum   4.0001
   12    C  MulP   2.0000  2.0000 sum   3.9999
   13    C  MulP   2.0000  2.0000 sum   3.9999
   14    C  MulP   2.0000  2.0000 sum   4.0000
   15    C  MulP   2.0000  2.0000 sum   4.0000
   16    C  MulP   2.0000  2.0000 sum   4.0001
   17    C  MulP   2.0000  2.0000 sum   4.0001
   18    C  MulP   1.9997  1.9997 sum   3.9993
   19    C  MulP   2.0017  2.0017 sum   4.0033
   20    C  MulP   2.0003  2.0003 sum   4.0006
     ..........
     ......

 Sum of MulP: up   =   264.00000 down          =   264.00000
              total=   528.00000 ideal(neutral)=   528.00000
<DFT>  Total Spin Moment (muB) =  0.000000000000
<DFT>  Mixing_weight= 0.300000000000
<DFT>  Uele   = -250.339198954373  dUele     =   0.874375070517
<DFT>  NormRD =    0.470331045661  Criterion =   0.000000010000

******************* MD= 1  SCF=12 *******************
<Poisson>  Poisson's equation using FFT...
<Set_Hamiltonian>  Hamiltonian matrix for VNA+dVH+Vxc...
<Band>  Solving the eigenvalue problem...
 KGrids1:  -0.43750  -0.31250  -0.18750  -0.06250   0.06250   0.18750   0.31250   0.43750 
 KGrids2:  -0.43750  -0.31250  -0.18750  -0.06250   0.06250   0.18750   0.31250   0.43750 
 KGrids3:   0.00000 
<Band_DFT>  Eigen, time=14.002820
<Band_DFT>  DM, time=0.000001
    1    C  MulP   2.0000  2.0000 sum   4.0001
    2    C  MulP   1.9998  1.9998 sum   3.9996
    3    C  MulP   2.0000  2.0000 sum   4.0000
    4    C  MulP   1.9998  1.9998 sum   3.9996
    5    C  MulP   2.0000  2.0000 sum   4.0000
    6    C  MulP   1.9998  1.9998 sum   3.9996
    7    C  MulP   2.0000  2.0000 sum   4.0001
    8    C  MulP   1.9998  1.9998 sum   3.9996
    9    C  MulP   2.0000  2.0000 sum   4.0001
   10    C  MulP   2.0000  2.0000 sum   4.0001
   11    C  MulP   2.0001  2.0001 sum   4.0001
   12    C  MulP   2.0000  2.0000 sum   3.9999
   13    C  MulP   2.0000  2.0000 sum   3.9999
   14    C  MulP   2.0000  2.0000 sum   4.0000
   15    C  MulP   2.0000  2.0000 sum   4.0000
   16    C  MulP   2.0000  2.0000 sum   4.0001
   17    C  MulP   2.0000  2.0000 sum   4.0001
   18    C  MulP   1.9997  1.9997 sum   3.9993
   19    C  MulP   2.0017  2.0017 sum   4.0033
   20    C  MulP   2.0003  2.0003 sum   4.0006
     ..........
     ......

 Sum of MulP: up   =   264.00000 down          =   264.00000
              total=   528.00000 ideal(neutral)=   528.00000
<DFT>  Total Spin Moment (muB) =  0.000000000000
<DFT>  Mixing_weight= 0.300000000000
<DFT>  Uele   = -251.012730964228  dUele     =   0.673532009855
<DFT>  NormRD =    0.327819944827  Criterion =   0.000000010000

******************* MD= 1  SCF=13 *******************
<Poisson>  Poisson's equation using FFT...
<Set_Hamiltonian>  Hamiltonian matrix for VNA+dVH+Vxc...
<Band>  Solving the eigenvalue problem...
 KGrids1:  -0.43750  -0.31250  -0.18750  -0.06250   0.06250   0.18750   0.31250   0.43750 
 KGrids2:  -0.43750  -0.31250  -0.18750  -0.06250   0.06250   0.18750   0.31250   0.43750 
 KGrids3:   0.00000 
<Band_DFT>  Eigen, time=14.045668
<Band_DFT>  DM, time=0.000000
    1    C  MulP   2.0000  2.0000 sum   4.0001
    2    C  MulP   1.9998  1.9998 sum   3.9996
    3    C  MulP   2.0000  2.0000 sum   4.0001
    4    C  MulP   1.9998  1.9998 sum   3.9996
    5    C  MulP   2.0000  2.0000 sum   4.0000
    6    C  MulP   1.9998  1.9998 sum   3.9996
    7    C  MulP   2.0000  2.0000 sum   4.0001
    8    C  MulP   1.9998  1.9998 sum   3.9996
    9    C  MulP   2.0000  2.0000 sum   4.0001
   10    C  MulP   2.0000  2.0000 sum   4.0001
   11    C  MulP   2.0001  2.0001 sum   4.0001
   12    C  MulP   2.0000  2.0000 sum   3.9999
   13    C  MulP   2.0000  2.0000 sum   3.9999
   14    C  MulP   2.0000  2.0000 sum   4.0000
   15    C  MulP   2.0000  2.0000 sum   4.0000
   16    C  MulP   2.0000  2.0000 sum   4.0001
   17    C  MulP   2.0001  2.0001 sum   4.0001
   18    C  MulP   1.9997  1.9997 sum   3.9993
   19    C  MulP   2.0017  2.0017 sum   4.0034
   20    C  MulP   2.0003  2.0003 sum   4.0006
     ..........
     ......

 Sum of MulP: up   =   264.00000 down          =   264.00000
              total=   528.00000 ideal(neutral)=   528.00000
<DFT>  Total Spin Moment (muB) =  0.000000000000
<DFT>  Mixing_weight= 0.300000000000
<DFT>  Uele   = -251.545091093637  dUele     =   0.532360129409
<DFT>  NormRD =    0.229259511092  Criterion =   0.000000010000

******************* MD= 1  SCF=14 *******************
<Poisson>  Poisson's equation using FFT...
<Set_Hamiltonian>  Hamiltonian matrix for VNA+dVH+Vxc...
<Band>  Solving the eigenvalue problem...
 KGrids1:  -0.43750  -0.31250  -0.18750  -0.06250   0.06250   0.18750   0.31250   0.43750 
 KGrids2:  -0.43750  -0.31250  -0.18750  -0.06250   0.06250   0.18750   0.31250   0.43750 
 KGrids3:   0.00000 
<Band_DFT>  Eigen, time=14.023764
<Band_DFT>  DM, time=0.000000
    1    C  MulP   2.0000  2.0000 sum   4.0001
    2    C  MulP   1.9998  1.9998 sum   3.9996
    3    C  MulP   2.0000  2.0000 sum   4.0001
    4    C  MulP   1.9998  1.9998 sum   3.9996
    5    C  MulP   2.0000  2.0000 sum   4.0000
    6    C  MulP   1.9998  1.9998 sum   3.9996
    7    C  MulP   2.0000  2.0000 sum   4.0001
    8    C  MulP   1.9998  1.9998 sum   3.9996
    9    C  MulP   2.0000  2.0000 sum   4.0001
   10    C  MulP   2.0000  2.0000 sum   4.0001
   11    C  MulP   2.0001  2.0001 sum   4.0001
   12    C  MulP   2.0000  2.0000 sum   3.9999
   13    C  MulP   2.0000  2.0000 sum   3.9999
   14    C  MulP   2.0000  2.0000 sum   4.0000
   15    C  MulP   2.0000  2.0000 sum   4.0001
   16    C  MulP   2.0000  2.0000 sum   4.0001
   17    C  MulP   2.0001  2.0001 sum   4.0001
   18    C  MulP   1.9997  1.9997 sum   3.9993
   19    C  MulP   2.0017  2.0017 sum   4.0034
   20    C  MulP   2.0003  2.0003 sum   4.0006
     ..........
     ......

 Sum of MulP: up   =   264.00000 down          =   264.00000
              total=   528.00000 ideal(neutral)=   528.00000
<DFT>  Total Spin Moment (muB) =  0.000000000000
<DFT>  Mixing_weight= 0.300000000000
<DFT>  Uele   = -251.975430411322  dUele     =   0.430339317685
<DFT>  NormRD =    0.160981889867  Criterion =   0.000000010000

******************* MD= 1  SCF=15 *******************
<Poisson>  Poisson's equation using FFT...
<Set_Hamiltonian>  Hamiltonian matrix for VNA+dVH+Vxc...
<Band>  Solving the eigenvalue problem...
 KGrids1:  -0.43750  -0.31250  -0.18750  -0.06250   0.06250   0.18750   0.31250   0.43750 
 KGrids2:  -0.43750  -0.31250  -0.18750  -0.06250   0.06250   0.18750   0.31250   0.43750 
 KGrids3:   0.00000 
<Band_DFT>  Eigen, time=14.016018
<Band_DFT>  DM, time=0.000000
    1    C  MulP   2.0000  2.0000 sum   4.0001
    2    C  MulP   1.9998  1.9998 sum   3.9996
    3    C  MulP   2.0000  2.0000 sum   4.0001
    4    C  MulP   1.9998  1.9998 sum   3.9996
    5    C  MulP   2.0000  2.0000 sum   4.0000
    6    C  MulP   1.9998  1.9998 sum   3.9996
    7    C  MulP   2.0000  2.0000 sum   4.0001
    8    C  MulP   1.9998  1.9998 sum   3.9996
    9    C  MulP   2.0001  2.0001 sum   4.0001
   10    C  MulP   2.0000  2.0000 sum   4.0001
   11    C  MulP   2.0001  2.0001 sum   4.0001
   12    C  MulP   2.0000  2.0000 sum   3.9999
   13    C  MulP   2.0000  2.0000 sum   3.9999
   14    C  MulP   2.0000  2.0000 sum   4.0000
   15    C  MulP   2.0000  2.0000 sum   4.0001
   16    C  MulP   2.0000  2.0000 sum   4.0001
   17    C  MulP   2.0001  2.0001 sum   4.0001
   18    C  MulP   1.9997  1.9997 sum   3.9993
   19    C  MulP   2.0017  2.0017 sum   4.0034
   20    C  MulP   2.0003  2.0003 sum   4.0006
     ..........
     ......

 Sum of MulP: up   =   264.00000 down          =   264.00000
              total=   528.00000 ideal(neutral)=   528.00000
<DFT>  Total Spin Moment (muB) =  0.000000000000
<DFT>  Mixing_weight= 0.030000000000
<DFT>  Uele   = -252.329962829539  dUele     =   0.354532418217
<DFT>  NormRD =    0.114687251513  Criterion =   0.000000010000

******************* MD= 1  SCF=16 *******************
<Poisson>  Poisson's equation using FFT...
<Set_Hamiltonian>  Hamiltonian matrix for VNA+dVH+Vxc...
<Band>  Solving the eigenvalue problem...
 KGrids1:  -0.43750  -0.31250  -0.18750  -0.06250   0.06250   0.18750   0.31250   0.43750 
 KGrids2:  -0.43750  -0.31250  -0.18750  -0.06250   0.06250   0.18750   0.31250   0.43750 
 KGrids3:   0.00000 
<Band_DFT>  Eigen, time=14.035624
<Band_DFT>  DM, time=0.000001
    1    C  MulP   2.0001  2.0001 sum   4.0001
    2    C  MulP   1.9998  1.9998 sum   3.9996
    3    C  MulP   2.0000  2.0000 sum   4.0001
    4    C  MulP   1.9998  1.9998 sum   3.9996
    5    C  MulP   2.0000  2.0000 sum   4.0000
    6    C  MulP   1.9998  1.9998 sum   3.9996
    7    C  MulP   2.0000  2.0000 sum   4.0001
    8    C  MulP   1.9998  1.9998 sum   3.9997
    9    C  MulP   2.0001  2.0001 sum   4.0001
   10    C  MulP   2.0001  2.0001 sum   4.0001
   11    C  MulP   2.0001  2.0001 sum   4.0001
   12    C  MulP   1.9999  1.9999 sum   3.9999
   13    C  MulP   2.0000  2.0000 sum   3.9999
   14    C  MulP   2.0000  2.0000 sum   4.0000
   15    C  MulP   2.0000  2.0000 sum   4.0001
   16    C  MulP   2.0000  2.0000 sum   4.0001
   17    C  MulP   2.0001  2.0001 sum   4.0001
   18    C  MulP   1.9997  1.9997 sum   3.9994
   19    C  MulP   2.0017  2.0017 sum   4.0034
   20    C  MulP   2.0003  2.0003 sum   4.0006
     ..........
     ......

 Sum of MulP: up   =   264.00000 down          =   264.00000
              total=   528.00000 ideal(neutral)=   528.00000
<DFT>  Total Spin Moment (muB) =  0.000000000000
<DFT>  Mixing_weight= 0.030000000000
<DFT>  Uele   = -254.362584657669  dUele     =   2.032621828131
<DFT>  NormRD =    0.011677104865  Criterion =   0.000000010000

******************* MD= 1  SCF=17 *******************
<Poisson>  Poisson's equation using FFT...
<Set_Hamiltonian>  Hamiltonian matrix for VNA+dVH+Vxc...
<Band>  Solving the eigenvalue problem...
 KGrids1:  -0.43750  -0.31250  -0.18750  -0.06250   0.06250   0.18750   0.31250   0.43750 
 KGrids2:  -0.43750  -0.31250  -0.18750  -0.06250   0.06250   0.18750   0.31250   0.43750 
 KGrids3:   0.00000 
<Band_DFT>  Eigen, time=14.288561
<Band_DFT>  DM, time=0.000000
    1    C  MulP   2.0000  2.0000 sum   4.0001
    2    C  MulP   1.9998  1.9998 sum   3.9996
    3    C  MulP   2.0000  2.0000 sum   4.0001
    4    C  MulP   1.9998  1.9998 sum   3.9996
    5    C  MulP   2.0000  2.0000 sum   4.0001
    6    C  MulP   1.9998  1.9998 sum   3.9996
    7    C  MulP   2.0000  2.0000 sum   4.0001
    8    C  MulP   1.9998  1.9998 sum   3.9996
    9    C  MulP   2.0000  2.0000 sum   4.0001
   10    C  MulP   2.0000  2.0000 sum   4.0001
   11    C  MulP   2.0001  2.0001 sum   4.0001
   12    C  MulP   2.0000  2.0000 sum   3.9999
   13    C  MulP   2.0000  2.0000 sum   4.0000
   14    C  MulP   2.0000  2.0000 sum   4.0001
   15    C  MulP   2.0000  2.0000 sum   4.0001
   16    C  MulP   2.0000  2.0000 sum   4.0001
   17    C  MulP   2.0000  2.0000 sum   4.0001
   18    C  MulP   1.9997  1.9997 sum   3.9993
   19    C  MulP   2.0017  2.0017 sum   4.0033
   20    C  MulP   2.0003  2.0003 sum   4.0006
     ..........
     ......

 Sum of MulP: up   =   264.00000 down          =   264.00000
              total=   528.00000 ideal(neutral)=   528.00000
<DFT>  Total Spin Moment (muB) =  0.000000000000
<DFT>  Mixing_weight= 0.030000000000
<DFT>  Uele   = -254.536212944604  dUele     =   0.173628286934
<DFT>  NormRD =    0.003520602264  Criterion =   0.000000010000

******************* MD= 1  SCF=18 *******************
<Poisson>  Poisson's equation using FFT...
<Set_Hamiltonian>  Hamiltonian matrix for VNA+dVH+Vxc...
<Band>  Solving the eigenvalue problem...
 KGrids1:  -0.43750  -0.31250  -0.18750  -0.06250   0.06250   0.18750   0.31250   0.43750 
 KGrids2:  -0.43750  -0.31250  -0.18750  -0.06250   0.06250   0.18750   0.31250   0.43750 
 KGrids3:   0.00000 
<Band_DFT>  Eigen, time=14.036565
<Band_DFT>  DM, time=0.000000
    1    C  MulP   2.0001  2.0001 sum   4.0002
    2    C  MulP   1.9998  1.9998 sum   3.9996
    3    C  MulP   2.0000  2.0000 sum   4.0000
    4    C  MulP   1.9997  1.9997 sum   3.9995
    5    C  MulP   2.0000  2.0000 sum   3.9999
    6    C  MulP   1.9998  1.9998 sum   3.9996
    7    C  MulP   2.0001  2.0001 sum   4.0001
    8    C  MulP   1.9999  1.9999 sum   3.9997
    9    C  MulP   2.0001  2.0001 sum   4.0002
   10    C  MulP   2.0001  2.0001 sum   4.0002
   11    C  MulP   2.0001  2.0001 sum   4.0001
   12    C  MulP   1.9999  1.9999 sum   3.9998
   13    C  MulP   1.9999  1.9999 sum   3.9998
   14    C  MulP   2.0000  2.0000 sum   3.9999
   15    C  MulP   2.0000  2.0000 sum   4.0000
   16    C  MulP   2.0001  2.0001 sum   4.0001
   17    C  MulP   2.0001  2.0001 sum   4.0002
   18    C  MulP   1.9997  1.9997 sum   3.9995
   19    C  MulP   2.0018  2.0018 sum   4.0036
   20    C  MulP   2.0003  2.0003 sum   4.0007
     ..........
     ......

 Sum of MulP: up   =   264.00000 down          =   264.00000
              total=   528.00000 ideal(neutral)=   528.00000
<DFT>  Total Spin Moment (muB) =  0.000000000000
<DFT>  Mixing_weight= 0.030000000000
<DFT>  Uele   = -254.647817564649  dUele     =   0.111604620045
<DFT>  NormRD =    0.004174522967  Criterion =   0.000000010000

******************* MD= 1  SCF=19 *******************
<Poisson>  Poisson's equation using FFT...
<Set_Hamiltonian>  Hamiltonian matrix for VNA+dVH+Vxc...
<Band>  Solving the eigenvalue problem...
 KGrids1:  -0.43750  -0.31250  -0.18750  -0.06250   0.06250   0.18750   0.31250   0.43750 
 KGrids2:  -0.43750  -0.31250  -0.18750  -0.06250   0.06250   0.18750   0.31250   0.43750 
 KGrids3:   0.00000 
<Band_DFT>  Eigen, time=14.027185
<Band_DFT>  DM, time=0.000000
    1    C  MulP   2.0000  2.0000 sum   4.0001
    2    C  MulP   1.9998  1.9998 sum   3.9996
    3    C  MulP   2.0000  2.0000 sum   4.0001
    4    C  MulP   1.9998  1.9998 sum   3.9996
    5    C  MulP   2.0000  2.0000 sum   4.0001
    6    C  MulP   1.9998  1.9998 sum   3.9996
    7    C  MulP   2.0000  2.0000 sum   4.0001
    8    C  MulP   1.9998  1.9998 sum   3.9996
    9    C  MulP   2.0000  2.0000 sum   4.0001
   10    C  MulP   2.0000  2.0000 sum   4.0001
   11    C  MulP   2.0001  2.0001 sum   4.0001
   12    C  MulP   2.0000  2.0000 sum   3.9999
   13    C  MulP   2.0000  2.0000 sum   4.0000
   14    C  MulP   2.0000  2.0000 sum   4.0001
   15    C  MulP   2.0000  2.0000 sum   4.0001
   16    C  MulP   2.0000  2.0000 sum   4.0001
   17    C  MulP   2.0001  2.0001 sum   4.0001
   18    C  MulP   1.9997  1.9997 sum   3.9993
   19    C  MulP   2.0017  2.0017 sum   4.0034
   20    C  MulP   2.0003  2.0003 sum   4.0006
     ..........
     ......

 Sum of MulP: up   =   264.00000 down          =   264.00000
              total=   528.00000 ideal(neutral)=   528.00000
<DFT>  Total Spin Moment (muB) =  0.000000000000
<DFT>  Mixing_weight= 0.030000000000
<DFT>  Uele   = -254.661934403132  dUele     =   0.014116838484
<DFT>  NormRD =    0.000894695224  Criterion =   0.000000010000

******************* MD= 1  SCF=20 *******************
<Poisson>  Poisson's equation using FFT...
<Set_Hamiltonian>  Hamiltonian matrix for VNA+dVH+Vxc...
<Band>  Solving the eigenvalue problem...
 KGrids1:  -0.43750  -0.31250  -0.18750  -0.06250   0.06250   0.18750   0.31250   0.43750 
 KGrids2:  -0.43750  -0.31250  -0.18750  -0.06250   0.06250   0.18750   0.31250   0.43750 
 KGrids3:   0.00000 
<Band_DFT>  Eigen, time=14.016844
<Band_DFT>  DM, time=0.000001
    1    C  MulP   2.0001  2.0001 sum   4.0001
    2    C  MulP   1.9998  1.9998 sum   3.9996
    3    C  MulP   2.0000  2.0000 sum   4.0000
    4    C  MulP   1.9998  1.9998 sum   3.9996
    5    C  MulP   2.0000  2.0000 sum   4.0000
    6    C  MulP   1.9998  1.9998 sum   3.9996
    7    C  MulP   2.0000  2.0000 sum   4.0001
    8    C  MulP   1.9998  1.9998 sum   3.9997
    9    C  MulP   2.0001  2.0001 sum   4.0001
   10    C  MulP   2.0001  2.0001 sum   4.0001
   11    C  MulP   2.0001  2.0001 sum   4.0001
   12    C  MulP   2.0000  2.0000 sum   3.9999
   13    C  MulP   2.0000  2.0000 sum   3.9999
   14    C  MulP   2.0000  2.0000 sum   4.0000
   15    C  MulP   2.0000  2.0000 sum   4.0000
   16    C  MulP   2.0000  2.0000 sum   4.0001
   17    C  MulP   2.0001  2.0001 sum   4.0001
   18    C  MulP   1.9997  1.9997 sum   3.9994
   19    C  MulP   2.0017  2.0017 sum   4.0034
   20    C  MulP   2.0003  2.0003 sum   4.0007
     ..........
     ......

 Sum of MulP: up   =   264.00000 down          =   264.00000
              total=   528.00000 ideal(neutral)=   528.00000
<DFT>  Total Spin Moment (muB) =  0.000000000000
<DFT>  Mixing_weight= 0.030000000000
<DFT>  Uele   = -254.683997519862  dUele     =   0.022063116730
<DFT>  NormRD =    0.000707797638  Criterion =   0.000000010000

******************* MD= 1  SCF=21 *******************
<Poisson>  Poisson's equation using FFT...
<Set_Hamiltonian>  Hamiltonian matrix for VNA+dVH+Vxc...
<Band>  Solving the eigenvalue problem...
 KGrids1:  -0.43750  -0.31250  -0.18750  -0.06250   0.06250   0.18750   0.31250   0.43750 
 KGrids2:  -0.43750  -0.31250  -0.18750  -0.06250   0.06250   0.18750   0.31250   0.43750 
 KGrids3:   0.00000 
<Band_DFT>  Eigen, time=14.041589
<Band_DFT>  DM, time=0.000000
    1    C  MulP   2.0001  2.0001 sum   4.0001
    2    C  MulP   1.9998  1.9998 sum   3.9996
    3    C  MulP   2.0000  2.0000 sum   4.0001
    4    C  MulP   1.9998  1.9998 sum   3.9996
    5    C  MulP   2.0000  2.0000 sum   4.0000
    6    C  MulP   1.9998  1.9998 sum   3.9996
    7    C  MulP   2.0000  2.0000 sum   4.0001
    8    C  MulP   1.9998  1.9998 sum   3.9996
    9    C  MulP   2.0001  2.0001 sum   4.0001
   10    C  MulP   2.0000  2.0000 sum   4.0001
   11    C  MulP   2.0001  2.0001 sum   4.0001
   12    C  MulP   1.9999  1.9999 sum   3.9999
   13    C  MulP   2.0000  2.0000 sum   3.9999
   14    C  MulP   2.0000  2.0000 sum   4.0000
   15    C  MulP   2.0000  2.0000 sum   4.0001
   16    C  MulP   2.0000  2.0000 sum   4.0001
   17    C  MulP   2.0001  2.0001 sum   4.0001
   18    C  MulP   1.9997  1.9997 sum   3.9993
   19    C  MulP   2.0017  2.0017 sum   4.0034
   20    C  MulP   2.0003  2.0003 sum   4.0006
     ..........
     ......

 Sum of MulP: up   =   264.00000 down          =   264.00000
              total=   528.00000 ideal(neutral)=   528.00000
<DFT>  Total Spin Moment (muB) =  0.000000000000
<DFT>  Mixing_weight= 0.030000000000
<DFT>  Uele   = -254.690800923195  dUele     =   0.006803403332
<DFT>  NormRD =    0.000230703978  Criterion =   0.000000010000

******************* MD= 1  SCF=22 *******************
<Poisson>  Poisson's equation using FFT...
<Set_Hamiltonian>  Hamiltonian matrix for VNA+dVH+Vxc...
<Band>  Solving the eigenvalue problem...
 KGrids1:  -0.43750  -0.31250  -0.18750  -0.06250   0.06250   0.18750   0.31250   0.43750 
 KGrids2:  -0.43750  -0.31250  -0.18750  -0.06250   0.06250   0.18750   0.31250   0.43750 
 KGrids3:   0.00000 
<Band_DFT>  Eigen, time=14.023737
<Band_DFT>  DM, time=0.000000
    1    C  MulP   2.0001  2.0001 sum   4.0001
    2    C  MulP   1.9998  1.9998 sum   3.9996
    3    C  MulP   2.0000  2.0000 sum   4.0001
    4    C  MulP   1.9998  1.9998 sum   3.9996
    5    C  MulP   2.0000  2.0000 sum   4.0000
    6    C  MulP   1.9998  1.9998 sum   3.9996
    7    C  MulP   2.0000  2.0000 sum   4.0001
    8    C  MulP   1.9998  1.9998 sum   3.9996
    9    C  MulP   2.0001  2.0001 sum   4.0001
   10    C  MulP   2.0000  2.0000 sum   4.0001
   11    C  MulP   2.0001  2.0001 sum   4.0001
   12    C  MulP   2.0000  2.0000 sum   3.9999
   13    C  MulP   2.0000  2.0000 sum   3.9999
   14    C  MulP   2.0000  2.0000 sum   4.0000
   15    C  MulP   2.0000  2.0000 sum   4.0001
   16    C  MulP   2.0000  2.0000 sum   4.0001
   17    C  MulP   2.0001  2.0001 sum   4.0001
   18    C  MulP   1.9997  1.9997 sum   3.9994
   19    C  MulP   2.0017  2.0017 sum   4.0034
   20    C  MulP   2.0003  2.0003 sum   4.0006
     ..........
     ......

 Sum of MulP: up   =   264.00000 down          =   264.00000
              total=   528.00000 ideal(neutral)=   528.00000
<DFT>  Total Spin Moment (muB) =  0.000000000000
<DFT>  Mixing_weight= 0.030000000000
<DFT>  Uele   = -254.694985152344  dUele     =   0.004184229149
<DFT>  NormRD =    0.000109109254  Criterion =   0.000000010000

******************* MD= 1  SCF=23 *******************
<Poisson>  Poisson's equation using FFT...
<Set_Hamiltonian>  Hamiltonian matrix for VNA+dVH+Vxc...
<Band>  Solving the eigenvalue problem...
 KGrids1:  -0.43750  -0.31250  -0.18750  -0.06250   0.06250   0.18750   0.31250   0.43750 
 KGrids2:  -0.43750  -0.31250  -0.18750  -0.06250   0.06250   0.18750   0.31250   0.43750 
 KGrids3:   0.00000 
<Band_DFT>  Eigen, time=14.046010
<Band_DFT>  DM, time=0.000000
    1    C  MulP   2.0001  2.0001 sum   4.0001
    2    C  MulP   1.9998  1.9998 sum   3.9996
    3    C  MulP   2.0000  2.0000 sum   4.0001
    4    C  MulP   1.9998  1.9998 sum   3.9996
    5    C  MulP   2.0000  2.0000 sum   4.0000
    6    C  MulP   1.9998  1.9998 sum   3.9996
    7    C  MulP   2.0000  2.0000 sum   4.0001
    8    C  MulP   1.9998  1.9998 sum   3.9996
    9    C  MulP   2.0001  2.0001 sum   4.0001
   10    C  MulP   2.0000  2.0000 sum   4.0001
   11    C  MulP   2.0001  2.0001 sum   4.0001
   12    C  MulP   2.0000  2.0000 sum   3.9999
   13    C  MulP   2.0000  2.0000 sum   3.9999
   14    C  MulP   2.0000  2.0000 sum   4.0000
   15    C  MulP   2.0000  2.0000 sum   4.0001
   16    C  MulP   2.0000  2.0000 sum   4.0001
   17    C  MulP   2.0001  2.0001 sum   4.0001
   18    C  MulP   1.9997  1.9997 sum   3.9994
   19    C  MulP   2.0017  2.0017 sum   4.0034
   20    C  MulP   2.0003  2.0003 sum   4.0006
     ..........
     ......

 Sum of MulP: up   =   264.00000 down          =   264.00000
              total=   528.00000 ideal(neutral)=   528.00000
<DFT>  Total Spin Moment (muB) =  0.000000000000
<DFT>  Mixing_weight= 0.030000000000
<DFT>  Uele   = -254.696821818958  dUele     =   0.001836666614
<DFT>  NormRD =    0.000041593831  Criterion =   0.000000010000

******************* MD= 1  SCF=24 *******************
<Poisson>  Poisson's equation using FFT...
<Set_Hamiltonian>  Hamiltonian matrix for VNA+dVH+Vxc...
<Band>  Solving the eigenvalue problem...
 KGrids1:  -0.43750  -0.31250  -0.18750  -0.06250   0.06250   0.18750   0.31250   0.43750 
 KGrids2:  -0.43750  -0.31250  -0.18750  -0.06250   0.06250   0.18750   0.31250   0.43750 
 KGrids3:   0.00000 
<Band_DFT>  Eigen, time=14.020670
<Band_DFT>  DM, time=0.000000
    1    C  MulP   2.0001  2.0001 sum   4.0001
    2    C  MulP   1.9998  1.9998 sum   3.9996
    3    C  MulP   2.0000  2.0000 sum   4.0001
    4    C  MulP   1.9998  1.9998 sum   3.9996
    5    C  MulP   2.0000  2.0000 sum   4.0000
    6    C  MulP   1.9998  1.9998 sum   3.9996
    7    C  MulP   2.0000  2.0000 sum   4.0001
    8    C  MulP   1.9998  1.9998 sum   3.9996
    9    C  MulP   2.0001  2.0001 sum   4.0001
   10    C  MulP   2.0000  2.0000 sum   4.0001
   11    C  MulP   2.0001  2.0001 sum   4.0001
   12    C  MulP   2.0000  2.0000 sum   3.9999
   13    C  MulP   2.0000  2.0000 sum   3.9999
   14    C  MulP   2.0000  2.0000 sum   4.0000
   15    C  MulP   2.0000  2.0000 sum   4.0001
   16    C  MulP   2.0000  2.0000 sum   4.0001
   17    C  MulP   2.0001  2.0001 sum   4.0001
   18    C  MulP   1.9997  1.9997 sum   3.9993
   19    C  MulP   2.0017  2.0017 sum   4.0034
   20    C  MulP   2.0003  2.0003 sum   4.0006
     ..........
     ......

 Sum of MulP: up   =   264.00000 down          =   264.00000
              total=   528.00000 ideal(neutral)=   528.00000
<DFT>  Total Spin Moment (muB) =  0.000000000000
<DFT>  Mixing_weight= 0.030000000000
<DFT>  Uele   = -254.697856734780  dUele     =   0.001034915822
<DFT>  NormRD =    0.000027588433  Criterion =   0.000000010000

******************* MD= 1  SCF=25 *******************
<Poisson>  Poisson's equation using FFT...
<Set_Hamiltonian>  Hamiltonian matrix for VNA+dVH+Vxc...
<Band>  Solving the eigenvalue problem...
 KGrids1:  -0.43750  -0.31250  -0.18750  -0.06250   0.06250   0.18750   0.31250   0.43750 
 KGrids2:  -0.43750  -0.31250  -0.18750  -0.06250   0.06250   0.18750   0.31250   0.43750 
 KGrids3:   0.00000 
<Band_DFT>  Eigen, time=14.015453
<Band_DFT>  DM, time=0.000001
    1    C  MulP   2.0001  2.0001 sum   4.0001
    2    C  MulP   1.9998  1.9998 sum   3.9996
    3    C  MulP   2.0000  2.0000 sum   4.0001
    4    C  MulP   1.9998  1.9998 sum   3.9996
    5    C  MulP   2.0000  2.0000 sum   4.0000
    6    C  MulP   1.9998  1.9998 sum   3.9996
    7    C  MulP   2.0000  2.0000 sum   4.0001
    8    C  MulP   1.9998  1.9998 sum   3.9996
    9    C  MulP   2.0001  2.0001 sum   4.0001
   10    C  MulP   2.0000  2.0000 sum   4.0001
   11    C  MulP   2.0001  2.0001 sum   4.0001
   12    C  MulP   2.0000  2.0000 sum   3.9999
   13    C  MulP   2.0000  2.0000 sum   3.9999
   14    C  MulP   2.0000  2.0000 sum   4.0000
   15    C  MulP   2.0000  2.0000 sum   4.0001
   16    C  MulP   2.0000  2.0000 sum   4.0001
   17    C  MulP   2.0001  2.0001 sum   4.0001
   18    C  MulP   1.9997  1.9997 sum   3.9994
   19    C  MulP   2.0017  2.0017 sum   4.0034
   20    C  MulP   2.0003  2.0003 sum   4.0006
     ..........
     ......

 Sum of MulP: up   =   264.00000 down          =   264.00000
              total=   528.00000 ideal(neutral)=   528.00000
<DFT>  Total Spin Moment (muB) =  0.000000000000
<DFT>  Mixing_weight= 0.030000000000
<DFT>  Uele   = -254.698361982290  dUele     =   0.000505247511
<DFT>  NormRD =    0.000014800886  Criterion =   0.000000010000

******************* MD= 1  SCF=26 *******************
<Poisson>  Poisson's equation using FFT...
<Set_Hamiltonian>  Hamiltonian matrix for VNA+dVH+Vxc...
<Band>  Solving the eigenvalue problem...
 KGrids1:  -0.43750  -0.31250  -0.18750  -0.06250   0.06250   0.18750   0.31250   0.43750 
 KGrids2:  -0.43750  -0.31250  -0.18750  -0.06250   0.06250   0.18750   0.31250   0.43750 
 KGrids3:   0.00000 
<Band_DFT>  Eigen, time=14.037194
<Band_DFT>  DM, time=0.000000
    1    C  MulP   2.0001  2.0001 sum   4.0001
    2    C  MulP   1.9998  1.9998 sum   3.9996
    3    C  MulP   2.0000  2.0000 sum   4.0001
    4    C  MulP   1.9998  1.9998 sum   3.9996
    5    C  MulP   2.0000  2.0000 sum   4.0000
    6    C  MulP   1.9998  1.9998 sum   3.9996
    7    C  MulP   2.0000  2.0000 sum   4.0001
    8    C  MulP   1.9998  1.9998 sum   3.9996
    9    C  MulP   2.0001  2.0001 sum   4.0001
   10    C  MulP   2.0000  2.0000 sum   4.0001
   11    C  MulP   2.0001  2.0001 sum   4.0001
   12    C  MulP   2.0000  2.0000 sum   3.9999
   13    C  MulP   2.0000  2.0000 sum   3.9999
   14    C  MulP   2.0000  2.0000 sum   4.0000
   15    C  MulP   2.0000  2.0000 sum   4.0001
   16    C  MulP   2.0000  2.0000 sum   4.0001
   17    C  MulP   2.0001  2.0001 sum   4.0001
   18    C  MulP   1.9997  1.9997 sum   3.9994
   19    C  MulP   2.0017  2.0017 sum   4.0034
   20    C  MulP   2.0003  2.0003 sum   4.0006
     ..........
     ......

 Sum of MulP: up   =   264.00000 down          =   264.00000
              total=   528.00000 ideal(neutral)=   528.00000
<DFT>  Total Spin Moment (muB) =  0.000000000000
<DFT>  Mixing_weight= 0.030000000000
<DFT>  Uele   = -254.698662557238  dUele     =   0.000300574948
<DFT>  NormRD =    0.000006869511  Criterion =   0.000000010000

******************* MD= 1  SCF=27 *******************
<Poisson>  Poisson's equation using FFT...
<Set_Hamiltonian>  Hamiltonian matrix for VNA+dVH+Vxc...
<Band>  Solving the eigenvalue problem...
 KGrids1:  -0.43750  -0.31250  -0.18750  -0.06250   0.06250   0.18750   0.31250   0.43750 
 KGrids2:  -0.43750  -0.31250  -0.18750  -0.06250   0.06250   0.18750   0.31250   0.43750 
 KGrids3:   0.00000 
<Band_DFT>  Eigen, time=14.010578
<Band_DFT>  DM, time=0.000000
    1    C  MulP   2.0001  2.0001 sum   4.0001
    2    C  MulP   1.9998  1.9998 sum   3.9996
    3    C  MulP   2.0000  2.0000 sum   4.0001
    4    C  MulP   1.9998  1.9998 sum   3.9996
    5    C  MulP   2.0000  2.0000 sum   4.0000
    6    C  MulP   1.9998  1.9998 sum   3.9996
    7    C  MulP   2.0000  2.0000 sum   4.0001
    8    C  MulP   1.9998  1.9998 sum   3.9996
    9    C  MulP   2.0001  2.0001 sum   4.0001
   10    C  MulP   2.0000  2.0000 sum   4.0001
   11    C  MulP   2.0001  2.0001 sum   4.0001
   12    C  MulP   2.0000  2.0000 sum   3.9999
   13    C  MulP   2.0000  2.0000 sum   3.9999
   14    C  MulP   2.0000  2.0000 sum   4.0000
   15    C  MulP   2.0000  2.0000 sum   4.0001
   16    C  MulP   2.0000  2.0000 sum   4.0001
   17    C  MulP   2.0001  2.0001 sum   4.0001
   18    C  MulP   1.9997  1.9997 sum   3.9994
   19    C  MulP   2.0017  2.0017 sum   4.0034
   20    C  MulP   2.0003  2.0003 sum   4.0006
     ..........
     ......

 Sum of MulP: up   =   264.00000 down          =   264.00000
              total=   528.00000 ideal(neutral)=   528.00000
<DFT>  Total Spin Moment (muB) =  0.000000000000
<DFT>  Mixing_weight= 0.030000000000
<DFT>  Uele   = -254.698815168109  dUele     =   0.000152610871
<DFT>  NormRD =    0.000003331135  Criterion =   0.000000010000

******************* MD= 1  SCF=28 *******************
<Poisson>  Poisson's equation using FFT...
<Set_Hamiltonian>  Hamiltonian matrix for VNA+dVH+Vxc...
<Band>  Solving the eigenvalue problem...
 KGrids1:  -0.43750  -0.31250  -0.18750  -0.06250   0.06250   0.18750   0.31250   0.43750 
 KGrids2:  -0.43750  -0.31250  -0.18750  -0.06250   0.06250   0.18750   0.31250   0.43750 
 KGrids3:   0.00000 
<Band_DFT>  Eigen, time=14.004501
<Band_DFT>  DM, time=0.000000
    1    C  MulP   2.0001  2.0001 sum   4.0001
    2    C  MulP   1.9998  1.9998 sum   3.9996
    3    C  MulP   2.0000  2.0000 sum   4.0001
    4    C  MulP   1.9998  1.9998 sum   3.9996
    5    C  MulP   2.0000  2.0000 sum   4.0000
    6    C  MulP   1.9998  1.9998 sum   3.9996
    7    C  MulP   2.0000  2.0000 sum   4.0001
    8    C  MulP   1.9998  1.9998 sum   3.9996
    9    C  MulP   2.0001  2.0001 sum   4.0001
   10    C  MulP   2.0000  2.0000 sum   4.0001
   11    C  MulP   2.0001  2.0001 sum   4.0001
   12    C  MulP   2.0000  2.0000 sum   3.9999
   13    C  MulP   2.0000  2.0000 sum   3.9999
   14    C  MulP   2.0000  2.0000 sum   4.0000
   15    C  MulP   2.0000  2.0000 sum   4.0001
   16    C  MulP   2.0000  2.0000 sum   4.0001
   17    C  MulP   2.0001  2.0001 sum   4.0001
   18    C  MulP   1.9997  1.9997 sum   3.9994
   19    C  MulP   2.0017  2.0017 sum   4.0034
   20    C  MulP   2.0003  2.0003 sum   4.0006
     ..........
     ......

 Sum of MulP: up   =   264.00000 down          =   264.00000
              total=   528.00000 ideal(neutral)=   528.00000
<DFT>  Total Spin Moment (muB) =  0.000000000000
<DFT>  Mixing_weight= 0.030000000000
<DFT>  Uele   = -254.698900956880  dUele     =   0.000085788771
<DFT>  NormRD =    0.000002111477  Criterion =   0.000000010000

******************* MD= 1  SCF=29 *******************
<Poisson>  Poisson's equation using FFT...
<Set_Hamiltonian>  Hamiltonian matrix for VNA+dVH+Vxc...
<Band>  Solving the eigenvalue problem...
 KGrids1:  -0.43750  -0.31250  -0.18750  -0.06250   0.06250   0.18750   0.31250   0.43750 
 KGrids2:  -0.43750  -0.31250  -0.18750  -0.06250   0.06250   0.18750   0.31250   0.43750 
 KGrids3:   0.00000 
<Band_DFT>  Eigen, time=14.029653
<Band_DFT>  DM, time=0.000000
    1    C  MulP   2.0001  2.0001 sum   4.0001
    2    C  MulP   1.9998  1.9998 sum   3.9996
    3    C  MulP   2.0000  2.0000 sum   4.0001
    4    C  MulP   1.9998  1.9998 sum   3.9996
    5    C  MulP   2.0000  2.0000 sum   4.0000
    6    C  MulP   1.9998  1.9998 sum   3.9996
    7    C  MulP   2.0000  2.0000 sum   4.0001
    8    C  MulP   1.9998  1.9998 sum   3.9996
    9    C  MulP   2.0001  2.0001 sum   4.0001
   10    C  MulP   2.0000  2.0000 sum   4.0001
   11    C  MulP   2.0001  2.0001 sum   4.0001
   12    C  MulP   2.0000  2.0000 sum   3.9999
   13    C  MulP   2.0000  2.0000 sum   3.9999
   14    C  MulP   2.0000  2.0000 sum   4.0000
   15    C  MulP   2.0000  2.0000 sum   4.0001
   16    C  MulP   2.0000  2.0000 sum   4.0001
   17    C  MulP   2.0001  2.0001 sum   4.0001
   18    C  MulP   1.9997  1.9997 sum   3.9994
   19    C  MulP   2.0017  2.0017 sum   4.0034
   20    C  MulP   2.0003  2.0003 sum   4.0006
     ..........
     ......

 Sum of MulP: up   =   264.00000 down          =   264.00000
              total=   528.00000 ideal(neutral)=   528.00000
<DFT>  Total Spin Moment (muB) =  0.000000000000
<DFT>  Mixing_weight= 0.030000000000
<DFT>  Uele   = -254.698973621638  dUele     =   0.000072664758
<DFT>  NormRD =    0.000001046199  Criterion =   0.000000010000

******************* MD= 1  SCF=30 *******************
<Poisson>  Poisson's equation using FFT...
<Set_Hamiltonian>  Hamiltonian matrix for VNA+dVH+Vxc...
<Band>  Solving the eigenvalue problem...
 KGrids1:  -0.43750  -0.31250  -0.18750  -0.06250   0.06250   0.18750   0.31250   0.43750 
 KGrids2:  -0.43750  -0.31250  -0.18750  -0.06250   0.06250   0.18750   0.31250   0.43750 
 KGrids3:   0.00000 
<Band_DFT>  Eigen, time=14.068691
<Band_DFT>  DM, time=0.000000
    1    C  MulP   2.0001  2.0001 sum   4.0001
    2    C  MulP   1.9998  1.9998 sum   3.9996
    3    C  MulP   2.0000  2.0000 sum   4.0001
    4    C  MulP   1.9998  1.9998 sum   3.9996
    5    C  MulP   2.0000  2.0000 sum   4.0000
    6    C  MulP   1.9998  1.9998 sum   3.9996
    7    C  MulP   2.0000  2.0000 sum   4.0001
    8    C  MulP   1.9998  1.9998 sum   3.9996
    9    C  MulP   2.0001  2.0001 sum   4.0001
   10    C  MulP   2.0000  2.0000 sum   4.0001
   11    C  MulP   2.0001  2.0001 sum   4.0001
   12    C  MulP   2.0000  2.0000 sum   3.9999
   13    C  MulP   2.0000  2.0000 sum   3.9999
   14    C  MulP   2.0000  2.0000 sum   4.0000
   15    C  MulP   2.0000  2.0000 sum   4.0001
   16    C  MulP   2.0000  2.0000 sum   4.0001
   17    C  MulP   2.0001  2.0001 sum   4.0001
   18    C  MulP   1.9997  1.9997 sum   3.9994
   19    C  MulP   2.0017  2.0017 sum   4.0034
   20    C  MulP   2.0003  2.0003 sum   4.0006
     ..........
     ......

 Sum of MulP: up   =   264.00000 down          =   264.00000
              total=   528.00000 ideal(neutral)=   528.00000
<DFT>  Total Spin Moment (muB) =  0.000000000000
<DFT>  Mixing_weight= 0.030000000000
<DFT>  Uele   = -254.699023638975  dUele     =   0.000050017336
<DFT>  NormRD =    0.000000366781  Criterion =   0.000000010000

******************* MD= 1  SCF=31 *******************
<Poisson>  Poisson's equation using FFT...
<Set_Hamiltonian>  Hamiltonian matrix for VNA+dVH+Vxc...
<Band>  Solving the eigenvalue problem...
 KGrids1:  -0.43750  -0.31250  -0.18750  -0.06250   0.06250   0.18750   0.31250   0.43750 
 KGrids2:  -0.43750  -0.31250  -0.18750  -0.06250   0.06250   0.18750   0.31250   0.43750 
 KGrids3:   0.00000 
<Band_DFT>  Eigen, time=14.046042
<Band_DFT>  DM, time=0.000000
    1    C  MulP   2.0001  2.0001 sum   4.0001
    2    C  MulP   1.9998  1.9998 sum   3.9996
    3    C  MulP   2.0000  2.0000 sum   4.0001
    4    C  MulP   1.9998  1.9998 sum   3.9996
    5    C  MulP   2.0000  2.0000 sum   4.0000
    6    C  MulP   1.9998  1.9998 sum   3.9996
    7    C  MulP   2.0000  2.0000 sum   4.0001
    8    C  MulP   1.9998  1.9998 sum   3.9996
    9    C  MulP   2.0001  2.0001 sum   4.0001
   10    C  MulP   2.0000  2.0000 sum   4.0001
   11    C  MulP   2.0001  2.0001 sum   4.0001
   12    C  MulP   2.0000  2.0000 sum   3.9999
   13    C  MulP   2.0000  2.0000 sum   3.9999
   14    C  MulP   2.0000  2.0000 sum   4.0000
   15    C  MulP   2.0000  2.0000 sum   4.0001
   16    C  MulP   2.0000  2.0000 sum   4.0001
   17    C  MulP   2.0001  2.0001 sum   4.0001
   18    C  MulP   1.9997  1.9997 sum   3.9994
   19    C  MulP   2.0017  2.0017 sum   4.0034
   20    C  MulP   2.0003  2.0003 sum   4.0006
     ..........
     ......

 Sum of MulP: up   =   264.00000 down          =   264.00000
              total=   528.00000 ideal(neutral)=   528.00000
<DFT>  Total Spin Moment (muB) =  0.000000000000
<DFT>  Mixing_weight= 0.030000000000
<DFT>  Uele   = -254.699039635032  dUele     =   0.000015996058
<DFT>  NormRD =    0.000000146114  Criterion =   0.000000010000

******************* MD= 1  SCF=32 *******************
<Poisson>  Poisson's equation using FFT...
<Set_Hamiltonian>  Hamiltonian matrix for VNA+dVH+Vxc...
<Band>  Solving the eigenvalue problem...
 KGrids1:  -0.43750  -0.31250  -0.18750  -0.06250   0.06250   0.18750   0.31250   0.43750 
 KGrids2:  -0.43750  -0.31250  -0.18750  -0.06250   0.06250   0.18750   0.31250   0.43750 
 KGrids3:   0.00000 
<Band_DFT>  Eigen, time=14.031296
<Band_DFT>  DM, time=0.000000
    1    C  MulP   2.0001  2.0001 sum   4.0001
    2    C  MulP   1.9998  1.9998 sum   3.9996
    3    C  MulP   2.0000  2.0000 sum   4.0001
    4    C  MulP   1.9998  1.9998 sum   3.9996
    5    C  MulP   2.0000  2.0000 sum   4.0000
    6    C  MulP   1.9998  1.9998 sum   3.9996
    7    C  MulP   2.0000  2.0000 sum   4.0001
    8    C  MulP   1.9998  1.9998 sum   3.9996
    9    C  MulP   2.0001  2.0001 sum   4.0001
   10    C  MulP   2.0000  2.0000 sum   4.0001
   11    C  MulP   2.0001  2.0001 sum   4.0001
   12    C  MulP   2.0000  2.0000 sum   3.9999
   13    C  MulP   2.0000  2.0000 sum   3.9999
   14    C  MulP   2.0000  2.0000 sum   4.0000
   15    C  MulP   2.0000  2.0000 sum   4.0001
   16    C  MulP   2.0000  2.0000 sum   4.0001
   17    C  MulP   2.0001  2.0001 sum   4.0001
   18    C  MulP   1.9997  1.9997 sum   3.9994
   19    C  MulP   2.0017  2.0017 sum   4.0034
   20    C  MulP   2.0003  2.0003 sum   4.0006
     ..........
     ......

 Sum of MulP: up   =   264.00000 down          =   264.00000
              total=   528.00000 ideal(neutral)=   528.00000
<DFT>  Total Spin Moment (muB) =  0.000000000000
<DFT>  Mixing_weight= 0.030000000000
<DFT>  Uele   = -254.699048556623  dUele     =   0.000008921591
<DFT>  NormRD =    0.000000028553  Criterion =   0.000000010000

******************* MD= 1  SCF=33 *******************
<Poisson>  Poisson's equation using FFT...
<Set_Hamiltonian>  Hamiltonian matrix for VNA+dVH+Vxc...
<Band>  Solving the eigenvalue problem...
 KGrids1:  -0.43750  -0.31250  -0.18750  -0.06250   0.06250   0.18750   0.31250   0.43750 
 KGrids2:  -0.43750  -0.31250  -0.18750  -0.06250   0.06250   0.18750   0.31250   0.43750 
 KGrids3:   0.00000 
<Band_DFT>  Eigen, time=14.012249
<Band_DFT>  DM, time=0.000000
    1    C  MulP   2.0001  2.0001 sum   4.0001
    2    C  MulP   1.9998  1.9998 sum   3.9996
    3    C  MulP   2.0000  2.0000 sum   4.0001
    4    C  MulP   1.9998  1.9998 sum   3.9996
    5    C  MulP   2.0000  2.0000 sum   4.0000
    6    C  MulP   1.9998  1.9998 sum   3.9996
    7    C  MulP   2.0000  2.0000 sum   4.0001
    8    C  MulP   1.9998  1.9998 sum   3.9996
    9    C  MulP   2.0001  2.0001 sum   4.0001
   10    C  MulP   2.0000  2.0000 sum   4.0001
   11    C  MulP   2.0001  2.0001 sum   4.0001
   12    C  MulP   2.0000  2.0000 sum   3.9999
   13    C  MulP   2.0000  2.0000 sum   3.9999
   14    C  MulP   2.0000  2.0000 sum   4.0000
   15    C  MulP   2.0000  2.0000 sum   4.0001
   16    C  MulP   2.0000  2.0000 sum   4.0001
   17    C  MulP   2.0001  2.0001 sum   4.0001
   18    C  MulP   1.9997  1.9997 sum   3.9994
   19    C  MulP   2.0017  2.0017 sum   4.0034
   20    C  MulP   2.0003  2.0003 sum   4.0006
     ..........
     ......

 Sum of MulP: up   =   264.00000 down          =   264.00000
              total=   528.00000 ideal(neutral)=   528.00000
<DFT>  Total Spin Moment (muB) =  0.000000000000
<DFT>  Mixing_weight= 0.030000000000
<DFT>  Uele   = -254.699050336001  dUele     =   0.000001779378
<DFT>  NormRD =    0.000000007890  Criterion =   0.000000010000

******************* MD= 1  SCF=34 *******************
<Poisson>  Poisson's equation using FFT...
<Set_Hamiltonian>  Hamiltonian matrix for VNA+dVH+Vxc...
<Band>  Solving the eigenvalue problem...
 KGrids1:  -0.43750  -0.31250  -0.18750  -0.06250   0.06250   0.18750   0.31250   0.43750 
 KGrids2:  -0.43750  -0.31250  -0.18750  -0.06250   0.06250   0.18750   0.31250   0.43750 
 KGrids3:   0.00000 
<Band_DFT>  Eigen, time=14.028025
<Band_DFT>  DM, time=0.000000
    1    C  MulP   2.0001  2.0001 sum   4.0001
    2    C  MulP   1.9998  1.9998 sum   3.9996
    3    C  MulP   2.0000  2.0000 sum   4.0001
    4    C  MulP   1.9998  1.9998 sum   3.9996
    5    C  MulP   2.0000  2.0000 sum   4.0000
    6    C  MulP   1.9998  1.9998 sum   3.9996
    7    C  MulP   2.0000  2.0000 sum   4.0001
    8    C  MulP   1.9998  1.9998 sum   3.9996
    9    C  MulP   2.0001  2.0001 sum   4.0001
   10    C  MulP   2.0000  2.0000 sum   4.0001
   11    C  MulP   2.0001  2.0001 sum   4.0001
   12    C  MulP   2.0000  2.0000 sum   3.9999
   13    C  MulP   2.0000  2.0000 sum   3.9999
   14    C  MulP   2.0000  2.0000 sum   4.0000
   15    C  MulP   2.0000  2.0000 sum   4.0001
   16    C  MulP   2.0000  2.0000 sum   4.0001
   17    C  MulP   2.0001  2.0001 sum   4.0001
   18    C  MulP   1.9997  1.9997 sum   3.9994
   19    C  MulP   2.0017  2.0017 sum   4.0034
   20    C  MulP   2.0003  2.0003 sum   4.0006
     ..........
     ......

 Sum of MulP: up   =   264.00000 down          =   264.00000
              total=   528.00000 ideal(neutral)=   528.00000
<DFT>  Total Spin Moment (muB) =  0.000000000000
<DFT>  Mixing_weight= 0.030000000000
<DFT>  Uele   = -254.699050439018  dUele     =   0.000000103017
<DFT>  NormRD =    0.000000004562  Criterion =   0.000000010000

******************* MD= 1  SCF=35 *******************
<Poisson>  Poisson's equation using FFT...
<Set_Hamiltonian>  Hamiltonian matrix for VNA+dVH+Vxc...
<Band>  Solving the eigenvalue problem...
 KGrids1:  -0.43750  -0.31250  -0.18750  -0.06250   0.06250   0.18750   0.31250   0.43750 
 KGrids2:  -0.43750  -0.31250  -0.18750  -0.06250   0.06250   0.18750   0.31250   0.43750 
 KGrids3:   0.00000 
<Band_DFT>  Eigen, time=14.054815
<Band_DFT>  DM, time=0.000000
    1    C  MulP   2.0001  2.0001 sum   4.0001
    2    C  MulP   1.9998  1.9998 sum   3.9996
    3    C  MulP   2.0000  2.0000 sum   4.0001
    4    C  MulP   1.9998  1.9998 sum   3.9996
    5    C  MulP   2.0000  2.0000 sum   4.0000
    6    C  MulP   1.9998  1.9998 sum   3.9996
    7    C  MulP   2.0000  2.0000 sum   4.0001
    8    C  MulP   1.9998  1.9998 sum   3.9996
    9    C  MulP   2.0001  2.0001 sum   4.0001
   10    C  MulP   2.0000  2.0000 sum   4.0001
   11    C  MulP   2.0001  2.0001 sum   4.0001
   12    C  MulP   2.0000  2.0000 sum   3.9999
   13    C  MulP   2.0000  2.0000 sum   3.9999
   14    C  MulP   2.0000  2.0000 sum   4.0000
   15    C  MulP   2.0000  2.0000 sum   4.0001
   16    C  MulP   2.0000  2.0000 sum   4.0001
   17    C  MulP   2.0001  2.0001 sum   4.0001
   18    C  MulP   1.9997  1.9997 sum   3.9994
   19    C  MulP   2.0017  2.0017 sum   4.0034
   20    C  MulP   2.0003  2.0003 sum   4.0006
     ..........
     ......

 Sum of MulP: up   =   264.00000 down          =   264.00000
              total=   528.00000 ideal(neutral)=   528.00000
<DFT>  Total Spin Moment (muB) =  0.000000000000
<DFT>  Mixing_weight= 0.030000000000
<DFT>  Uele   = -254.699050354583  dUele     =   0.000000084435
<DFT>  NormRD =    0.000000001225  Criterion =   0.000000010000

******************* MD= 1  SCF=36 *******************
<Poisson>  Poisson's equation using FFT...
<Set_Hamiltonian>  Hamiltonian matrix for VNA+dVH+Vxc...
<Band>  Solving the eigenvalue problem...
 KGrids1:  -0.43750  -0.31250  -0.18750  -0.06250   0.06250   0.18750   0.31250   0.43750 
 KGrids2:  -0.43750  -0.31250  -0.18750  -0.06250   0.06250   0.18750   0.31250   0.43750 
 KGrids3:   0.00000 
<Band_DFT>  Eigen, time=14.027744
<Band_DFT>  DM, time=0.000000
    1    C  MulP   2.0001  2.0001 sum   4.0001
    2    C  MulP   1.9998  1.9998 sum   3.9996
    3    C  MulP   2.0000  2.0000 sum   4.0001
    4    C  MulP   1.9998  1.9998 sum   3.9996
    5    C  MulP   2.0000  2.0000 sum   4.0000
    6    C  MulP   1.9998  1.9998 sum   3.9996
    7    C  MulP   2.0000  2.0000 sum   4.0001
    8    C  MulP   1.9998  1.9998 sum   3.9996
    9    C  MulP   2.0001  2.0001 sum   4.0001
   10    C  MulP   2.0000  2.0000 sum   4.0001
   11    C  MulP   2.0001  2.0001 sum   4.0001
   12    C  MulP   2.0000  2.0000 sum   3.9999
   13    C  MulP   2.0000  2.0000 sum   3.9999
   14    C  MulP   2.0000  2.0000 sum   4.0000
   15    C  MulP   2.0000  2.0000 sum   4.0001
   16    C  MulP   2.0000  2.0000 sum   4.0001
   17    C  MulP   2.0001  2.0001 sum   4.0001
   18    C  MulP   1.9997  1.9997 sum   3.9994
   19    C  MulP   2.0017  2.0017 sum   4.0034
   20    C  MulP   2.0003  2.0003 sum   4.0006
     ..........
     ......

 Sum of MulP: up   =   264.00000 down          =   264.00000
              total=   528.00000 ideal(neutral)=   528.00000
<DFT>  Total Spin Moment (muB) =  0.000000000000
<DFT>  Mixing_weight= 0.030000000000
<DFT>  Uele   = -254.699050312281  dUele     =   0.000000042302
<DFT>  NormRD =    0.000000000465  Criterion =   0.000000010000

******************* MD= 1  SCF=37 *******************
<Poisson>  Poisson's equation using FFT...
<Set_Hamiltonian>  Hamiltonian matrix for VNA+dVH+Vxc...
<Band>  Solving the eigenvalue problem...
 KGrids1:  -0.43750  -0.31250  -0.18750  -0.06250   0.06250   0.18750   0.31250   0.43750 
 KGrids2:  -0.43750  -0.31250  -0.18750  -0.06250   0.06250   0.18750   0.31250   0.43750 
 KGrids3:   0.00000 
<Band_DFT>  Eigen, time=14.037872
<Band_DFT>  DM, time=0.000000
    1    C  MulP   2.0001  2.0001 sum   4.0001
    2    C  MulP   1.9998  1.9998 sum   3.9996
    3    C  MulP   2.0000  2.0000 sum   4.0001
    4    C  MulP   1.9998  1.9998 sum   3.9996
    5    C  MulP   2.0000  2.0000 sum   4.0000
    6    C  MulP   1.9998  1.9998 sum   3.9996
    7    C  MulP   2.0000  2.0000 sum   4.0001
    8    C  MulP   1.9998  1.9998 sum   3.9996
    9    C  MulP   2.0001  2.0001 sum   4.0001
   10    C  MulP   2.0000  2.0000 sum   4.0001
   11    C  MulP   2.0001  2.0001 sum   4.0001
   12    C  MulP   2.0000  2.0000 sum   3.9999
   13    C  MulP   2.0000  2.0000 sum   3.9999
   14    C  MulP   2.0000  2.0000 sum   4.0000
   15    C  MulP   2.0000  2.0000 sum   4.0001
   16    C  MulP   2.0000  2.0000 sum   4.0001
   17    C  MulP   2.0001  2.0001 sum   4.0001
   18    C  MulP   1.9997  1.9997 sum   3.9994
   19    C  MulP   2.0017  2.0017 sum   4.0034
   20    C  MulP   2.0003  2.0003 sum   4.0006
     ..........
     ......

 Sum of MulP: up   =   264.00000 down          =   264.00000
              total=   528.00000 ideal(neutral)=   528.00000
<DFT>  Total Spin Moment (muB) =  0.000000000000
<DFT>  Mixing_weight= 0.030000000000
<DFT>  Uele   = -254.699050300465  dUele     =   0.000000011816
<DFT>  NormRD =    0.000000000179  Criterion =   0.000000010000

******************* MD= 1  SCF=38 *******************
<Poisson>  Poisson's equation using FFT...
<Set_Hamiltonian>  Hamiltonian matrix for VNA+dVH+Vxc...
<Band>  Solving the eigenvalue problem...
 KGrids1:  -0.43750  -0.31250  -0.18750  -0.06250   0.06250   0.18750   0.31250   0.43750 
 KGrids2:  -0.43750  -0.31250  -0.18750  -0.06250   0.06250   0.18750   0.31250   0.43750 
 KGrids3:   0.00000 
<Band_DFT>  Eigen, time=14.022915
<Band_DFT>  DM, time=0.000000
    1    C  MulP   2.0001  2.0001 sum   4.0001
    2    C  MulP   1.9998  1.9998 sum   3.9996
    3    C  MulP   2.0000  2.0000 sum   4.0001
    4    C  MulP   1.9998  1.9998 sum   3.9996
    5    C  MulP   2.0000  2.0000 sum   4.0000
    6    C  MulP   1.9998  1.9998 sum   3.9996
    7    C  MulP   2.0000  2.0000 sum   4.0001
    8    C  MulP   1.9998  1.9998 sum   3.9996
    9    C  MulP   2.0001  2.0001 sum   4.0001
   10    C  MulP   2.0000  2.0000 sum   4.0001
   11    C  MulP   2.0001  2.0001 sum   4.0001
   12    C  MulP   2.0000  2.0000 sum   3.9999
   13    C  MulP   2.0000  2.0000 sum   3.9999
   14    C  MulP   2.0000  2.0000 sum   4.0000
   15    C  MulP   2.0000  2.0000 sum   4.0001
   16    C  MulP   2.0000  2.0000 sum   4.0001
   17    C  MulP   2.0001  2.0001 sum   4.0001
   18    C  MulP   1.9997  1.9997 sum   3.9994
   19    C  MulP   2.0017  2.0017 sum   4.0034
   20    C  MulP   2.0003  2.0003 sum   4.0006
     ..........
     ......

[...]
<DFT>  NormRD =    0.000000100477  Criterion =   0.000000010000

******************* MD=56  SCF=14 *******************
<Poisson>  Poisson's equation using FFT...
<Set_Hamiltonian>  Hamiltonian matrix for VNA+dVH+Vxc...
<Band>  Solving the eigenvalue problem...
 KGrids1:  -0.43750  -0.31250  -0.18750  -0.06250   0.06250   0.18750   0.31250   0.43750 
 KGrids2:  -0.43750  -0.31250  -0.18750  -0.06250   0.06250   0.18750   0.31250   0.43750 
 KGrids3:   0.00000 
<Band_DFT>  Eigen, time=14.177835
<Band_DFT>  DM, time=0.000000
    1    C  MulP   2.0001  2.0001 sum   4.0001
    2    C  MulP   1.9998  1.9998 sum   3.9996
    3    C  MulP   2.0000  2.0000 sum   4.0001
    4    C  MulP   1.9998  1.9998 sum   3.9996
    5    C  MulP   2.0000  2.0000 sum   4.0000
    6    C  MulP   1.9998  1.9998 sum   3.9996
    7    C  MulP   2.0000  2.0000 sum   4.0001
    8    C  MulP   1.9998  1.9998 sum   3.9997
    9    C  MulP   2.0001  2.0001 sum   4.0001
   10    C  MulP   2.0001  2.0001 sum   4.0001
   11    C  MulP   2.0000  2.0000 sum   4.0001
   12    C  MulP   1.9999  1.9999 sum   3.9998
   13    C  MulP   2.0000  2.0000 sum   3.9999
   14    C  MulP   2.0000  2.0000 sum   4.0000
   15    C  MulP   2.0000  2.0000 sum   4.0001
   16    C  MulP   2.0000  2.0000 sum   4.0001
   17    C  MulP   2.0000  2.0000 sum   4.0001
   18    C  MulP   1.9997  1.9997 sum   3.9995
   19    C  MulP   2.0012  2.0012 sum   4.0025
   20    C  MulP   1.9999  1.9999 sum   3.9998
     ..........
     ......

 Sum of MulP: up   =   264.00000 down          =   264.00000
              total=   528.00000 ideal(neutral)=   528.00000
<DFT>  Total Spin Moment (muB) =  0.000000000000
<DFT>  Mixing_weight= 0.030000000000
<DFT>  Uele   = -254.624345495897  dUele     =   0.000000007370
<DFT>  NormRD =    0.000000027275  Criterion =   0.000000010000
<MD=56>  Force calculation
  Force calculation #1
  Force calculation #2
  Force calculation #3
  Force calculation #4
  Force calculation #5
<MD=56>  Total Energy
  Force calculation #6
  Force calculation #7

*******************************************************
                  Dipole moment (Debye)                 
*******************************************************

 Absolute D        0.11014475

                      Dx                Dy                Dz
 Total              0.00036080        0.00001217       -0.11014415
 Core           12514.54246845    21675.82376378    26905.16129997
 Electron      -12514.54210765   -21675.82375161   -26905.27144413
 Back ground       -0.00000000       -0.00000000       -0.00000000

*******************************************************
                Total Energy (Hartree) at MD =56        
*******************************************************

  Uele  =    -254.624345495897

  Ukin  =     560.928267914805
  UH0   =   -7656.482682505266
  UH1   =       1.875899896934
  Una   =    -406.075406630015
  Unl   =     -62.822144418979
  Uxc0  =    -128.801739151723
  Uxc1  =    -128.801739151723
  Ucore =    7033.880028675481
  Uhub  =       0.000000000000
  Ucs   =       0.000000000000
  Uzs   =       0.000000000000
  Uzo   =       0.000000000000
  Uef   =       0.000000000000
  UvdW  =       0.000000000000
  Uch   =       0.000000000000
  Utot  =    -786.299515370486

  UpV   =       0.000000000000
  Enpy  =    -786.299515370486
  Note:

  Uele:   band energy
  Ukin:   kinetic energy
  UH0:    electric part of screened Coulomb energy
  UH1:    difference electron-electron Coulomb energy
  Una:    neutral atom potential energy
  Unl:    non-local potential energy
  Uxc0:   exchange-correlation energy for alpha spin
  Uxc1:   exchange-correlation energy for beta spin
  Ucore:  core-core Coulomb energy
  Uhub:   LDA+U energy
  Ucs:    constraint energy for spin orientation
  Uzs:    Zeeman term for spin magnetic moment
  Uzo:    Zeeman term for orbital magnetic moment
  Uef:    electric energy by electric field
  UvdW:   semi-empirical vdW energy 
  Uch:    penalty term to create a core hole
  UpV:    pressure times volume
  Enpy:   Enthalpy = Utot + UpV
  (see also PRB 72, 045121(2005) for the energy contributions)


*******************************************************
           Computational times (s) at MD =56            
*******************************************************

  DFT in total      =  244.35611

  Set_OLP_Kin       =    1.11080
  Set_Nonlocal      =    2.88996
  Set_ProExpn_VNA   =    4.72238
  Set_Hamiltonian   =   13.34405
  Poisson           =    0.16653
  diagonalization   =  208.92837
  Mixing_DM         =    1.41700
  Force             =    3.88223
  Total_Energy      =    1.27684
  Set_Aden_Grid     =    0.23096
  Set_Orbitals_Grid =    0.53147
  Set_Density_Grid  =    5.20653
  RestartFileDFT    =    0.30865
  Mulliken_Charge   =    0.01200
  FFT(2D)_Density   =    0.18123

The SCF was achieved at MD=  56

*******************************************************
             MD or geometry opt. at MD =56              
*******************************************************


The geometry optimization was achieved.
<RF>  |Maximum force| (Hartree/Bohr) = 0.000058825580
<RF>  Criterion       (Hartree/Bohr) = 0.000100000000

     atom=   1, XYZ(ang) Fxyz(a.u.)=  -0.0000    1.4245   10.5002     0.0000    0.0000   -0.0000
     atom=   2, XYZ(ang) Fxyz(a.u.)=  -1.2337    3.5612   10.5056     0.0000    0.0000    0.0000
     atom=   3, XYZ(ang) Fxyz(a.u.)=  -2.4673    5.6980   10.5140     0.0000    0.0000    0.0000
     atom=   4, XYZ(ang) Fxyz(a.u.)=  -3.7010    7.8347   10.5200     0.0000    0.0000    0.0000
     atom=   5, XYZ(ang) Fxyz(a.u.)=  -4.9346    9.9714   10.5201     0.0000    0.0000    0.0000
     atom=   6, XYZ(ang) Fxyz(a.u.)=  -6.1682   12.1081   10.5142    -0.0000   -0.0000   -0.0000
     atom=   7, XYZ(ang) Fxyz(a.u.)=  -7.4019   14.2448   10.5055    -0.0000   -0.0000   -0.0000
     atom=   8, XYZ(ang) Fxyz(a.u.)=  -8.6355   16.3816   10.5000     0.0000   -0.0000   -0.0000
     atom=   9, XYZ(ang) Fxyz(a.u.)=   2.4672    1.4244   10.4993     0.0000    0.0000   -0.0000
     atom=  10, XYZ(ang) Fxyz(a.u.)=   1.2336    3.5612   10.5015     0.0000    0.0000    0.0000
     atom=  11, XYZ(ang) Fxyz(a.u.)=  -0.0001    5.6980   10.5073     0.0000    0.0000    0.0000
     atom=  12, XYZ(ang) Fxyz(a.u.)=  -1.2337    7.8347   10.5146     0.0000   -0.0000    0.0000
     atom=  13, XYZ(ang) Fxyz(a.u.)=  -2.4673    9.9714   10.5178     0.0000    0.0000    0.0000
     atom=  14, XYZ(ang) Fxyz(a.u.)=  -3.7009   12.1081   10.5150     0.0000   -0.0000    0.0000
     atom=  15, XYZ(ang) Fxyz(a.u.)=  -4.9346   14.2448   10.5083     0.0000    0.0000    0.0000
     atom=  16, XYZ(ang) Fxyz(a.u.)=  -6.1682   16.3816   10.5018     0.0000    0.0000   -0.0000
     atom=  17, XYZ(ang) Fxyz(a.u.)=   4.9346    1.4245   10.4996     0.0000    0.0000   -0.0000
     atom=  18, XYZ(ang) Fxyz(a.u.)=   3.7009    3.5611   10.4986     0.0000    0.0000   -0.0000
     atom=  19, XYZ(ang) Fxyz(a.u.)=   2.4672    5.6979   10.5004    -0.0000   -0.0000   -0.0001
     atom=  20, XYZ(ang) Fxyz(a.u.)=   1.2335    7.8348   10.5057    -0.0000   -0.0000   -0.0000
     atom=  21, XYZ(ang) Fxyz(a.u.)=   0.0001    9.9714   10.5107     0.0000   -0.0000   -0.0000
     atom=  22, XYZ(ang) Fxyz(a.u.)=  -1.2336   12.1081   10.5108     0.0000    0.0000   -0.0000
     atom=  23, XYZ(ang) Fxyz(a.u.)=  -2.4672   14.2448   10.5078     0.0000    0.0000   -0.0000
     atom=  24, XYZ(ang) Fxyz(a.u.)=  -3.7009   16.3816   10.5034     0.0000    0.0000    0.0000
     atom=  25, XYZ(ang) Fxyz(a.u.)=   7.4018    1.4245   10.5014    -0.0000    0.0000   -0.0000
     atom=  26, XYZ(ang) Fxyz(a.u.)=   6.1682    3.5612   10.4996    -0.0000    0.0000   -0.0000
     atom=  27, XYZ(ang) Fxyz(a.u.)=   4.9346    5.6977   10.4977     0.0000    0.0000   -0.0000
     atom=  28, XYZ(ang) Fxyz(a.u.)=   3.7007    7.8348   10.4956    -0.0000   -0.0000    0.0000
     atom=  29, XYZ(ang) Fxyz(a.u.)=   2.4671    9.9715   10.5018    -0.0000   -0.0000    0.0000
     atom=  30, XYZ(ang) Fxyz(a.u.)=   1.2337   12.1080   10.5047     0.0000   -0.0000   -0.0000
     atom=  31, XYZ(ang) Fxyz(a.u.)=   0.0000   14.2448   10.5045     0.0000   -0.0000   -0.0000
     atom=  32, XYZ(ang) Fxyz(a.u.)=  -1.2337   16.3816   10.5035    -0.0000    0.0000    0.0000
     atom=  33, XYZ(ang) Fxyz(a.u.)=   9.8691    1.4245   10.5033    -0.0000   -0.0000   -0.0000
     atom=  34, XYZ(ang) Fxyz(a.u.)=   8.6354    3.5613   10.5031    -0.0000   -0.0000   -0.0000
     atom=  35, XYZ(ang) Fxyz(a.u.)=   7.4019    5.6980   10.5021    -0.0000   -0.0000   -0.0000
     atom=  36, XYZ(ang) Fxyz(a.u.)=   6.1687    7.8343   10.4950     0.0000   -0.0000    0.0000
     atom=  37, XYZ(ang) Fxyz(a.u.)=   4.9343    9.9714   10.4948    -0.0000    0.0000    0.0000
     atom=  38, XYZ(ang) Fxyz(a.u.)=   3.7007   12.1081   10.4994     0.0000    0.0000   -0.0000
     atom=  39, XYZ(ang) Fxyz(a.u.)=   2.4672   14.2448   10.5010    -0.0000   -0.0000   -0.0000
     atom=  40, XYZ(ang) Fxyz(a.u.)=   1.2336   16.3816   10.5024    -0.0000   -0.0000   -0.0000
     atom=  41, XYZ(ang) Fxyz(a.u.)=  12.3363    1.4245   10.5048    -0.0000   -0.0000   -0.0000
     atom=  42, XYZ(ang) Fxyz(a.u.)=  11.1027    3.5612   10.5077    -0.0000    0.0000   -0.0000
     atom=  43, XYZ(ang) Fxyz(a.u.)=   9.8690    5.6980   10.5090    -0.0000    0.0000    0.0000
     atom=  44, XYZ(ang) Fxyz(a.u.)=   8.6354    7.8345   10.5064    -0.0000    0.0000   -0.0000
     atom=  45, XYZ(ang) Fxyz(a.u.)=   7.4021    9.9714   10.5008     0.0000    0.0000   -0.0000
     atom=  46, XYZ(ang) Fxyz(a.u.)=   6.1681   12.1081   10.4984     0.0000    0.0000   -0.0000
     atom=  47, XYZ(ang) Fxyz(a.u.)=   4.9344   14.2448   10.4986    -0.0000   -0.0000   -0.0001
     atom=  48, XYZ(ang) Fxyz(a.u.)=   3.7008   16.3816   10.5012    -0.0000   -0.0000   -0.0000
     atom=  49, XYZ(ang) Fxyz(a.u.)=  14.8036    1.4245   10.5043    -0.0000   -0.0000   -0.0000
     atom=  50, XYZ(ang) Fxyz(a.u.)=  13.5700    3.5612   10.5106    -0.0000    0.0000    0.0000
     atom=  51, XYZ(ang) Fxyz(a.u.)=  12.3363    5.6980   10.5153    -0.0000    0.0000    0.0000
     atom=  52, XYZ(ang) Fxyz(a.u.)=  11.1026    7.8346   10.5151    -0.0000    0.0000   -0.0000
     atom=  53, XYZ(ang) Fxyz(a.u.)=   9.8691    9.9713   10.5094    -0.0000    0.0000   -0.0000
     atom=  54, XYZ(ang) Fxyz(a.u.)=   8.6355   12.1081   10.5029    -0.0000    0.0000    0.0000
     atom=  55, XYZ(ang) Fxyz(a.u.)=   7.4018   14.2449   10.4994    -0.0000   -0.0000   -0.0000
     atom=  56, XYZ(ang) Fxyz(a.u.)=   6.1681   16.3816   10.4998    -0.0000   -0.0000   -0.0000
     atom=  57, XYZ(ang) Fxyz(a.u.)=  17.2709    1.4245   10.5022     0.0000   -0.0000   -0.0000
     atom=  58, XYZ(ang) Fxyz(a.u.)=  16.0373    3.5612   10.5095     0.0000    0.0000   -0.0000
     atom=  59, XYZ(ang) Fxyz(a.u.)=  14.8036    5.6980   10.5172    -0.0000    0.0000   -0.0000
     atom=  60, XYZ(ang) Fxyz(a.u.)=  13.5700    7.8346   10.5202    -0.0000    0.0000   -0.0000
     atom=  61, XYZ(ang) Fxyz(a.u.)=  12.3363    9.9713   10.5168    -0.0000   -0.0000   -0.0001
     atom=  62, XYZ(ang) Fxyz(a.u.)=  11.1028   12.1081   10.5090    -0.0000   -0.0000   -0.0000
     atom=  63, XYZ(ang) Fxyz(a.u.)=   9.8691   14.2448   10.5022    -0.0000   -0.0000   -0.0000
     atom=  64, XYZ(ang) Fxyz(a.u.)=   8.6355   16.3816   10.4994     0.0000   -0.0000   -0.0000
     atom=  65, XYZ(ang) Fxyz(a.u.)=   1.2337    0.7123   10.4994    -0.0000    0.0000   -0.0000
     atom=  66, XYZ(ang) Fxyz(a.u.)=   0.0000    2.8490   10.5022     0.0000    0.0000   -0.0000
     atom=  67, XYZ(ang) Fxyz(a.u.)=  -1.2336    4.9858   10.5090     0.0000    0.0000   -0.0000
     atom=  68, XYZ(ang) Fxyz(a.u.)=  -2.4672    7.1225   10.5168     0.0000    0.0000   -0.0001
     atom=  69, XYZ(ang) Fxyz(a.u.)=  -3.7008    9.2592   10.5202     0.0000   -0.0000   -0.0000
     atom=  70, XYZ(ang) Fxyz(a.u.)=  -4.9345   11.3959   10.5173     0.0000   -0.0000   -0.0000
     atom=  71, XYZ(ang) Fxyz(a.u.)=  -6.1681   13.5327   10.5095    -0.0000   -0.0000   -0.0000
     atom=  72, XYZ(ang) Fxyz(a.u.)=  -7.4018   15.6694   10.5022    -0.0000    0.0000   -0.0000
     atom=  73, XYZ(ang) Fxyz(a.u.)=   3.7010    0.7123   10.4998     0.0000    0.0000   -0.0000
     atom=  74, XYZ(ang) Fxyz(a.u.)=   2.4673    2.8490   10.4994     0.0000    0.0000   -0.0000
     atom=  75, XYZ(ang) Fxyz(a.u.)=   1.2336    4.9857   10.5029     0.0000   -0.0000    0.0000
     atom=  76, XYZ(ang) Fxyz(a.u.)=   0.0000    7.1225   10.5094     0.0000   -0.0000   -0.0000
     atom=  77, XYZ(ang) Fxyz(a.u.)=  -1.2335    9.2592   10.5151     0.0000   -0.0000   -0.0000
     atom=  78, XYZ(ang) Fxyz(a.u.)=  -2.4671   11.3959   10.5153     0.0000   -0.0000    0.0000
     atom=  79, XYZ(ang) Fxyz(a.u.)=  -3.7008   13.5327   10.5106     0.0000   -0.0000    0.0000
     atom=  80, XYZ(ang) Fxyz(a.u.)=  -4.9345   15.6694   10.5043     0.0000    0.0000   -0.0000
     atom=  81, XYZ(ang) Fxyz(a.u.)=   6.1683    0.7123   10.5012     0.0000    0.0000   -0.0000
     atom=  82, XYZ(ang) Fxyz(a.u.)=   4.9347    2.8490   10.4986     0.0000    0.0000   -0.0001
     atom=  83, XYZ(ang) Fxyz(a.u.)=   3.7010    4.9857   10.4984    -0.0000   -0.0000   -0.0000
     atom=  84, XYZ(ang) Fxyz(a.u.)=   2.4671    7.1224   10.5008    -0.0000   -0.0000   -0.0000
     atom=  85, XYZ(ang) Fxyz(a.u.)=   1.2338    9.2593   10.5064     0.0000   -0.0000   -0.0000
     atom=  86, XYZ(ang) Fxyz(a.u.)=   0.0002   11.3959   10.5090     0.0000   -0.0000    0.0000
     atom=  87, XYZ(ang) Fxyz(a.u.)=  -1.2335   13.5326   10.5077     0.0000   -0.0000   -0.0000
     atom=  88, XYZ(ang) Fxyz(a.u.)=  -2.4672   15.6694   10.5048     0.0000    0.0000   -0.0000
     atom=  89, XYZ(ang) Fxyz(a.u.)=   8.6356    0.7123   10.5024     0.0000    0.0000   -0.0000
     atom=  90, XYZ(ang) Fxyz(a.u.)=   7.4019    2.8490   10.5010     0.0000    0.0000   -0.0000
     atom=  91, XYZ(ang) Fxyz(a.u.)=   6.1684    4.9857   10.4994    -0.0000   -0.0000   -0.0000
     atom=  92, XYZ(ang) Fxyz(a.u.)=   4.9349    7.1224   10.4948     0.0000   -0.0000    0.0000
     atom=  93, XYZ(ang) Fxyz(a.u.)=   3.7005    9.2595   10.4950    -0.0000    0.0000    0.0000
     atom=  94, XYZ(ang) Fxyz(a.u.)=   2.4673   11.3958   10.5021     0.0000    0.0000   -0.0000
     atom=  95, XYZ(ang) Fxyz(a.u.)=   1.2337   13.5326   10.5031     0.0000    0.0000   -0.0000
     atom=  96, XYZ(ang) Fxyz(a.u.)=   0.0001   15.6694   10.5034     0.0000    0.0000   -0.0000
     atom=  97, XYZ(ang) Fxyz(a.u.)=  11.1028    0.7123   10.5035     0.0000   -0.0000    0.0000
     atom=  98, XYZ(ang) Fxyz(a.u.)=   9.8691    2.8491   10.5045    -0.0000    0.0000   -0.0000
     atom=  99, XYZ(ang) Fxyz(a.u.)=   8.6355    4.9858   10.5047    -0.0000    0.0000   -0.0000
     atom= 100, XYZ(ang) Fxyz(a.u.)=   7.4021    7.1224   10.5018     0.0000    0.0000    0.0000
     atom= 101, XYZ(ang) Fxyz(a.u.)=   6.1684    9.2591   10.4956     0.0000    0.0000    0.0000
     atom= 102, XYZ(ang) Fxyz(a.u.)=   4.9345   11.3962   10.4977    -0.0000   -0.0000   -0.0000
     atom= 103, XYZ(ang) Fxyz(a.u.)=   3.7009   13.5327   10.4995     0.0000   -0.0000   -0.0000
     atom= 104, XYZ(ang) Fxyz(a.u.)=   2.4673   15.6694   10.5014     0.0000   -0.0000   -0.0000
     atom= 105, XYZ(ang) Fxyz(a.u.)=  13.5701    0.7123   10.5034    -0.0000   -0.0000    0.0000
     atom= 106, XYZ(ang) Fxyz(a.u.)=  12.3364    2.8491   10.5078    -0.0000   -0.0000   -0.0000
     atom= 107, XYZ(ang) Fxyz(a.u.)=  11.1027    4.9858   10.5108    -0.0000   -0.0000   -0.0000
     atom= 108, XYZ(ang) Fxyz(a.u.)=   9.8691    7.1225   10.5107    -0.0000    0.0000    0.0000
     atom= 109, XYZ(ang) Fxyz(a.u.)=   8.6356    9.2591   10.5057     0.0000    0.0000   -0.0000
     atom= 110, XYZ(ang) Fxyz(a.u.)=   7.4020   11.3959   10.5004     0.0000    0.0000   -0.0001
     atom= 111, XYZ(ang) Fxyz(a.u.)=   6.1682   13.5328   10.4986    -0.0000   -0.0000   -0.0000
     atom= 112, XYZ(ang) Fxyz(a.u.)=   4.9346   15.6694   10.4996    -0.0000   -0.0000   -0.0000
     atom= 113, XYZ(ang) Fxyz(a.u.)=  16.0374    0.7123   10.5018    -0.0000   -0.0000   -0.0000
     atom= 114, XYZ(ang) Fxyz(a.u.)=  14.8037    2.8490   10.5083    -0.0000    0.0000    0.0000
     atom= 115, XYZ(ang) Fxyz(a.u.)=  13.5700    4.9858   10.5150    -0.0000    0.0000    0.0000
     atom= 116, XYZ(ang) Fxyz(a.u.)=  12.3364    7.1225   10.5178    -0.0000   -0.0000    0.0000
     atom= 117, XYZ(ang) Fxyz(a.u.)=  11.1028    9.2592   10.5146    -0.0000    0.0000    0.0000
     atom= 118, XYZ(ang) Fxyz(a.u.)=   9.8692   11.3959   10.5073    -0.0000   -0.0000    0.0000
     atom= 119, XYZ(ang) Fxyz(a.u.)=   8.6356   13.5327   10.5014    -0.0000   -0.0000   -0.0000
     atom= 120, XYZ(ang) Fxyz(a.u.)=   7.4019   15.6694   10.4993    -0.0000   -0.0000   -0.0000
     atom= 121, XYZ(ang) Fxyz(a.u.)=  18.5047    0.7123   10.5000    -0.0000    0.0000   -0.0000
     atom= 122, XYZ(ang) Fxyz(a.u.)=  17.2710    2.8490   10.5055     0.0000    0.0000   -0.0000
     atom= 123, XYZ(ang) Fxyz(a.u.)=  16.0374    4.9858   10.5142     0.0000    0.0000   -0.0000
     atom= 124, XYZ(ang) Fxyz(a.u.)=  14.8037    7.1225   10.5200    -0.0000   -0.0000    0.0000
     atom= 125, XYZ(ang) Fxyz(a.u.)=  13.5701    9.2592   10.5200    -0.0000   -0.0000    0.0000
     atom= 126, XYZ(ang) Fxyz(a.u.)=  12.3365   11.3959   10.5140    -0.0000   -0.0000    0.0000
     atom= 127, XYZ(ang) Fxyz(a.u.)=  11.1029   13.5326   10.5056    -0.0000   -0.0000    0.0000
     atom= 128, XYZ(ang) Fxyz(a.u.)=   9.8692   15.6694   10.5002    -0.0000   -0.0000   -0.0000
     atom= 129, XYZ(ang) Fxyz(a.u.)=   4.9346    8.5469   13.9129     0.0000    0.0000    0.0000
     atom= 130, XYZ(ang) Fxyz(a.u.)=   3.9071    9.1470   13.9189     0.0000   -0.0000    0.0000
     atom= 131, XYZ(ang) Fxyz(a.u.)=   5.9621    7.9469   13.9189    -0.0000    0.0000    0.0000

outputting data on grids to files...


***********************************************************
***********************************************************
               Computational Time (second)                 
***********************************************************
***********************************************************

                               Min_ID   Min_Time       Max_ID   Max_Time
   Total Computational Time =    36    14995.633          0    14995.757
   readfile                 =    23        2.248          0        2.259
   truncation               =    38       50.827         31       55.741
   MD_pac                   =     0        2.900         19        3.100
   OutData                  =     5        0.495          0        0.608
   DFT                      =    31    14933.960         38    14938.875

*** In DFT ***

   Set_OLP_Kin              =    38       57.396         47       93.204
   Set_Nonlocal             =    47      129.011         38      164.770
   Set_ProExpn_VNA          =     7      257.090         31      274.303
   Set_Hamiltonian          =    18      817.565          3      817.576
   Poisson                  =    50       10.120         30       10.129
   Diagonalization          =     0    12841.476         18    12841.496
   Mixing_DM                =    54       87.751          7       87.756
   Force                    =    40      218.165          2      218.166
   Total_Energy             =     1       71.094          0       71.111
   Set_Aden_Grid            =    31        3.671          7       20.853
   Set_Orbitals_Grid        =    38       19.858         31       43.615
   Set_Density_Grid         =    35      288.323          8      323.744
   RestartFileDFT           =    31        3.973         38       16.749
   Mulliken_Charge          =    29        0.708          2        0.710
   FFT(2D)_Density          =    60       11.059          9       11.068
   Others                   =    63        6.653         35       53.051

The calculation was normally finished.
