
The number of threads in each node for OpenMP parallelization is 1.


*******************************************************
*******************************************************
 Welcome to OpenMX   Ver. 3.9.9                           
 Copyright (C), 2002-2019, T. Ozaki                    
 OpenMX comes with ABSOLUTELY NO WARRANTY.             
 This is free software, and you are welcome to         
 redistribute it under the constitution of the GNU-GPL.
*******************************************************
*******************************************************

Automatic determination of Kerker_factor:   3.992945286074


<Input_std>  Your input file was normally read.
<Input_std>  The system includes 2 species and 131 atoms.

*******************************************************
                     PAO and VPS                       
*******************************************************

<SetPara_DFT>  PAOs of species C were normally found.
<SetPara_DFT>  PAOs of species O were normally found.
<SetPara_DFT>  VPSs of species C were normally found.
               C_PBE19.vps is j-dependent.
               In case of scf.SpinOrbit.Coupling=off,
               j-dependent pseudo potentials are averaged by j-degeneracy,
               which corresponds to a scalar relativistic treatment.
<SetPara_DFT>  VPSs of species O were normally found.
               O_PBE19.vps is j-dependent.
               In case of scf.SpinOrbit.Coupling=off,
               j-dependent pseudo potentials are averaged by j-degeneracy,
               which corresponds to a scalar relativistic treatment.

*******************************************************
     Fourier transform of PAO and projectors of VNL    
*******************************************************

<FT_PAO>          Fourier transform of pseudo atomic orbitals
<FT_NLP>          Fourier transform of non-local projectors
<FT_ProExpn_VNA>  Fourier transform of VNA separable projectors
<FT_VNA>          Fourier transform of VNA potentials
<FT_ProductPAO>   Fourier transform of product of PAOs

*******************************************************
  Allocation of atoms to processors at MD_iter=    1     
*******************************************************

 proc =   0  # of atoms=   2  estimated weight=         2.00000
 proc =   1  # of atoms=   2  estimated weight=         2.00000
 proc =   2  # of atoms=   2  estimated weight=         2.00000
 proc =   3  # of atoms=   2  estimated weight=         2.00000
 proc =   4  # of atoms=   2  estimated weight=         2.00000
 proc =   5  # of atoms=   2  estimated weight=         2.00000
 proc =   6  # of atoms=   2  estimated weight=         2.00000
 proc =   7  # of atoms=   2  estimated weight=         2.00000
 proc =   8  # of atoms=   2  estimated weight=         2.00000
 proc =   9  # of atoms=   2  estimated weight=         2.00000
 proc =  10  # of atoms=   2  estimated weight=         2.00000
 proc =  11  # of atoms=   2  estimated weight=         2.00000
 proc =  12  # of atoms=   2  estimated weight=         2.00000
 proc =  13  # of atoms=   2  estimated weight=         2.00000
 proc =  14  # of atoms=   2  estimated weight=         2.00000
 proc =  15  # of atoms=   2  estimated weight=         2.00000
 proc =  16  # of atoms=   2  estimated weight=         2.00000
 proc =  17  # of atoms=   2  estimated weight=         2.00000
 proc =  18  # of atoms=   2  estimated weight=         2.00000
 proc =  19  # of atoms=   2  estimated weight=         2.00000
 proc =  20  # of atoms=   2  estimated weight=         2.00000
 proc =  21  # of atoms=   2  estimated weight=         2.00000
 proc =  22  # of atoms=   2  estimated weight=         2.00000
 proc =  23  # of atoms=   2  estimated weight=         2.00000
 proc =  24  # of atoms=   2  estimated weight=         2.00000
 proc =  25  # of atoms=   2  estimated weight=         2.00000
 proc =  26  # of atoms=   2  estimated weight=         2.00000
 proc =  27  # of atoms=   2  estimated weight=         2.00000
 proc =  28  # of atoms=   2  estimated weight=         2.00000
 proc =  29  # of atoms=   2  estimated weight=         2.00000
 proc =  30  # of atoms=   2  estimated weight=         2.00000
 proc =  31  # of atoms=   3  estimated weight=         3.00000
 proc =  32  # of atoms=   2  estimated weight=         2.00000
 proc =  33  # of atoms=   2  estimated weight=         2.00000
 proc =  34  # of atoms=   2  estimated weight=         2.00000
 proc =  35  # of atoms=   2  estimated weight=         2.00000
 proc =  36  # of atoms=   2  estimated weight=         2.00000
 proc =  37  # of atoms=   2  estimated weight=         2.00000
 proc =  38  # of atoms=   2  estimated weight=         2.00000
 proc =  39  # of atoms=   2  estimated weight=         2.00000
 proc =  40  # of atoms=   2  estimated weight=         2.00000
 proc =  41  # of atoms=   2  estimated weight=         2.00000
 proc =  42  # of atoms=   2  estimated weight=         2.00000
 proc =  43  # of atoms=   2  estimated weight=         2.00000
 proc =  44  # of atoms=   2  estimated weight=         2.00000
 proc =  45  # of atoms=   2  estimated weight=         2.00000
 proc =  46  # of atoms=   2  estimated weight=         2.00000
 proc =  47  # of atoms=   3  estimated weight=         3.00000
 proc =  48  # of atoms=   2  estimated weight=         2.00000
 proc =  49  # of atoms=   2  estimated weight=         2.00000
 proc =  50  # of atoms=   2  estimated weight=         2.00000
 proc =  51  # of atoms=   2  estimated weight=         2.00000
 proc =  52  # of atoms=   2  estimated weight=         2.00000
 proc =  53  # of atoms=   2  estimated weight=         2.00000
 proc =  54  # of atoms=   2  estimated weight=         2.00000
 proc =  55  # of atoms=   2  estimated weight=         2.00000
 proc =  56  # of atoms=   2  estimated weight=         2.00000
 proc =  57  # of atoms=   2  estimated weight=         2.00000
 proc =  58  # of atoms=   2  estimated weight=         2.00000
 proc =  59  # of atoms=   2  estimated weight=         2.00000
 proc =  60  # of atoms=   2  estimated weight=         2.00000
 proc =  61  # of atoms=   2  estimated weight=         2.00000
 proc =  62  # of atoms=   2  estimated weight=         2.00000
 proc =  63  # of atoms=   3  estimated weight=         3.00000




*******************************************************
        Analysis of neighbors and setting of grids        
*******************************************************

TFNAN=    5910   Average FNAN=  45.11450
TSNAN=       0   Average SNAN=   0.00000
<truncation> CpyCell= 1 ct_AN=   1 FNAN SNAN  45   0
<truncation> CpyCell= 1 ct_AN=   2 FNAN SNAN  45   0
<truncation> CpyCell= 1 ct_AN=   3 FNAN SNAN  45   0
<truncation> CpyCell= 1 ct_AN=   4 FNAN SNAN  45   0
<truncation> CpyCell= 1 ct_AN=   5 FNAN SNAN  45   0
<truncation> CpyCell= 1 ct_AN=   6 FNAN SNAN  45   0
<truncation> CpyCell= 1 ct_AN=   7 FNAN SNAN  45   0
<truncation> CpyCell= 1 ct_AN=   8 FNAN SNAN  45   0
<truncation> CpyCell= 1 ct_AN=   9 FNAN SNAN  45   0
<truncation> CpyCell= 1 ct_AN=  10 FNAN SNAN  45   0
<truncation> CpyCell= 1 ct_AN=  11 FNAN SNAN  45   0
<truncation> CpyCell= 1 ct_AN=  12 FNAN SNAN  45   0
<truncation> CpyCell= 1 ct_AN=  13 FNAN SNAN  45   0
<truncation> CpyCell= 1 ct_AN=  14 FNAN SNAN  45   0
<truncation> CpyCell= 1 ct_AN=  15 FNAN SNAN  45   0
<truncation> CpyCell= 1 ct_AN=  16 FNAN SNAN  45   0
<truncation> CpyCell= 1 ct_AN=  17 FNAN SNAN  45   0
<truncation> CpyCell= 1 ct_AN=  18 FNAN SNAN  46   0
<truncation> CpyCell= 1 ct_AN=  19 FNAN SNAN  47   0
<truncation> CpyCell= 1 ct_AN=  20 FNAN SNAN  47   0
     ..........
     ......

TFNAN=    5910   Average FNAN=  45.11450
TSNAN=       0   Average SNAN=   0.00000
<truncation> CpyCell= 2 ct_AN=   1 FNAN SNAN  45   0
<truncation> CpyCell= 2 ct_AN=   2 FNAN SNAN  45   0
<truncation> CpyCell= 2 ct_AN=   3 FNAN SNAN  45   0
<truncation> CpyCell= 2 ct_AN=   4 FNAN SNAN  45   0
<truncation> CpyCell= 2 ct_AN=   5 FNAN SNAN  45   0
<truncation> CpyCell= 2 ct_AN=   6 FNAN SNAN  45   0
<truncation> CpyCell= 2 ct_AN=   7 FNAN SNAN  45   0
<truncation> CpyCell= 2 ct_AN=   8 FNAN SNAN  45   0
<truncation> CpyCell= 2 ct_AN=   9 FNAN SNAN  45   0
<truncation> CpyCell= 2 ct_AN=  10 FNAN SNAN  45   0
<truncation> CpyCell= 2 ct_AN=  11 FNAN SNAN  45   0
<truncation> CpyCell= 2 ct_AN=  12 FNAN SNAN  45   0
<truncation> CpyCell= 2 ct_AN=  13 FNAN SNAN  45   0
<truncation> CpyCell= 2 ct_AN=  14 FNAN SNAN  45   0
<truncation> CpyCell= 2 ct_AN=  15 FNAN SNAN  45   0
<truncation> CpyCell= 2 ct_AN=  16 FNAN SNAN  45   0
<truncation> CpyCell= 2 ct_AN=  17 FNAN SNAN  45   0
<truncation> CpyCell= 2 ct_AN=  18 FNAN SNAN  46   0
<truncation> CpyCell= 2 ct_AN=  19 FNAN SNAN  47   0
<truncation> CpyCell= 2 ct_AN=  20 FNAN SNAN  47   0
     ..........
     ......

TFNAN=    5910   Average FNAN=  45.11450
TSNAN=       0   Average SNAN=   0.00000
<truncation> CpyCell= 2 ct_AN=   1 FNAN SNAN  45   0
<truncation> CpyCell= 2 ct_AN=   2 FNAN SNAN  45   0
<truncation> CpyCell= 2 ct_AN=   3 FNAN SNAN  45   0
<truncation> CpyCell= 2 ct_AN=   4 FNAN SNAN  45   0
<truncation> CpyCell= 2 ct_AN=   5 FNAN SNAN  45   0
<truncation> CpyCell= 2 ct_AN=   6 FNAN SNAN  45   0
<truncation> CpyCell= 2 ct_AN=   7 FNAN SNAN  45   0
<truncation> CpyCell= 2 ct_AN=   8 FNAN SNAN  45   0
<truncation> CpyCell= 2 ct_AN=   9 FNAN SNAN  45   0
<truncation> CpyCell= 2 ct_AN=  10 FNAN SNAN  45   0
<truncation> CpyCell= 2 ct_AN=  11 FNAN SNAN  45   0
<truncation> CpyCell= 2 ct_AN=  12 FNAN SNAN  45   0
<truncation> CpyCell= 2 ct_AN=  13 FNAN SNAN  45   0
<truncation> CpyCell= 2 ct_AN=  14 FNAN SNAN  45   0
<truncation> CpyCell= 2 ct_AN=  15 FNAN SNAN  45   0
<truncation> CpyCell= 2 ct_AN=  16 FNAN SNAN  45   0
<truncation> CpyCell= 2 ct_AN=  17 FNAN SNAN  45   0
<truncation> CpyCell= 2 ct_AN=  18 FNAN SNAN  46   0
<truncation> CpyCell= 2 ct_AN=  19 FNAN SNAN  47   0
<truncation> CpyCell= 2 ct_AN=  20 FNAN SNAN  47   0
     ..........
     ......

<Check_System> The system is slab.
lattice vectors (bohr)
A  = 37.299978480367,  0.000000000000,  0.000000000000
B  = -18.649989240184, 32.302728872609,  0.000000000000
C  =  0.000000000000,  0.000000000000, 39.684245760157
reciprocal lattice vectors (bohr^-1)
RA =  0.168450105420,  0.097254713866, -0.000000000000
RB =  0.000000000000,  0.194509427732,  0.000000000000
RC =  0.000000000000, -0.000000000000,  0.158329462658
Grid_Origin  0.051805525667  0.089729813964  0.272020279489
Cell_Volume =  47815.194201431834 (Bohr^3)
GridVol     =      0.006832303698 (Bohr^3)
Grid_Origin  0.051805525667  0.089729813964  0.272020279489
Cell_Volume =  47815.194201431834 (Bohr^3)
GridVol     =      0.006832303698 (Bohr^3)
<UCell_Box> Info. of cutoff energy and num. of grids
lattice vectors (bohr)
A  = 37.299978480367,  0.000000000000,  0.000000000000
B  = -18.649989240184, 32.302728872609,  0.000000000000
C  =  0.000000000000,  0.000000000000, 39.684245760157
reciprocal lattice vectors (bohr^-1)
RA =  0.168450105420,  0.097254713866, -0.000000000000
RB =  0.000000000000,  0.194509427732,  0.000000000000
RC =  0.000000000000, -0.000000000000,  0.158329462658
Required cutoff energy (Ryd) for 3D-grids = 300.0000
    Used cutoff energy (Ryd) for 3D-grids = 306.4547, 306.4547, 292.3957
Num. of grids of a-, b-, and c-axes = 180, 180, 216
Grid_Origin  0.051805525667  0.089729813964  0.272020279489
Cell_Volume =  47815.194201431834 (Bohr^3)
GridVol     =      0.006832303698 (Bohr^3)
Cell vectors (bohr) of the grid cell (gtv)
  gtv_a =  0.207222102669,  0.000000000000,  0.000000000000
  gtv_b = -0.103611051334,  0.179459604848,  0.000000000000
  gtv_c =  0.000000000000,  0.000000000000,  0.183723360001
  |gtv_a| =  0.207222102669
  |gtv_b| =  0.207222102419
  |gtv_c| =  0.183723360001
Num. of grids overlapping with atom    1 = 132400
Num. of grids overlapping with atom    2 = 132428
Num. of grids overlapping with atom    3 = 132400
Num. of grids overlapping with atom    4 = 132428
Num. of grids overlapping with atom    5 = 132400
Num. of grids overlapping with atom    6 = 132428
Num. of grids overlapping with atom    7 = 132400
Num. of grids overlapping with atom    8 = 132428
Num. of grids overlapping with atom    9 = 132400
Num. of grids overlapping with atom   10 = 132400
Num. of grids overlapping with atom   11 = 132400
Num. of grids overlapping with atom   12 = 132400
Num. of grids overlapping with atom   13 = 132400
Num. of grids overlapping with atom   14 = 132400
Num. of grids overlapping with atom   15 = 132400
Num. of grids overlapping with atom   16 = 132400
Num. of grids overlapping with atom   17 = 132400
Num. of grids overlapping with atom   18 = 132428
Num. of grids overlapping with atom   19 = 132400
Num. of grids overlapping with atom   20 = 132428
     ..........
     ......


*******************************************************
             SCF calculation at MD = 1                
*******************************************************

<MD= 1>  Calculation of the overlap matrix
<MD= 1>  Calculation of the nonlocal matrix
<MD= 1>  Calculation of the VNA projector matrix

******************* MD= 1  SCF= 1 *******************
<Band>  Solving the eigenvalue problem...
 KGrids1:  -0.43750  -0.31250  -0.18750  -0.06250   0.06250   0.18750   0.31250   0.43750 
 KGrids2:  -0.43750  -0.31250  -0.18750  -0.06250   0.06250   0.18750   0.31250   0.43750 
 KGrids3:   0.00000 
<Band_DFT>  Eigen, time=23.599914
<Band_DFT>  DM, time=0.000009
    1    C  MulP   2.0000  2.0000 sum   4.0001
    2    C  MulP   1.9998  1.9998 sum   3.9997
    3    C  MulP   2.0000  2.0000 sum   4.0001
    4    C  MulP   1.9999  1.9999 sum   3.9997
    5    C  MulP   2.0000  2.0000 sum   4.0001
    6    C  MulP   1.9999  1.9999 sum   3.9997
    7    C  MulP   2.0000  2.0000 sum   4.0001
    8    C  MulP   1.9999  1.9999 sum   3.9997
    9    C  MulP   2.0000  2.0000 sum   4.0001
   10    C  MulP   2.0000  2.0000 sum   4.0000
   11    C  MulP   2.0000  2.0000 sum   4.0000
   12    C  MulP   2.0000  2.0000 sum   4.0000
   13    C  MulP   2.0000  2.0000 sum   4.0001
   14    C  MulP   2.0000  2.0000 sum   4.0001
   15    C  MulP   2.0000  2.0000 sum   4.0001
   16    C  MulP   2.0000  2.0000 sum   4.0001
   17    C  MulP   2.0001  2.0001 sum   4.0001
   18    C  MulP   1.9997  1.9997 sum   3.9994
   19    C  MulP   2.0006  2.0006 sum   4.0011
   20    C  MulP   2.0004  2.0004 sum   4.0007
     ..........
     ......

 Sum of MulP: up   =   264.00000 down          =   264.00000
              total=   528.00000 ideal(neutral)=   528.00000
<DFT>  Total Spin Moment (muB) =  0.000000000000
<DFT>  Mixing_weight= 0.050000000000
<DFT>  Uele   = -216.765630672000  dUele     =   1.000000000000
<DFT>  NormRD =    1.000000000000  Criterion =   0.000000010000

******************* MD= 1  SCF= 2 *******************
<Poisson>  Poisson's equation using FFT...
<Set_Hamiltonian>  Hamiltonian matrix for VNA+dVH+Vxc...
<Band>  Solving the eigenvalue problem...
 KGrids1:  -0.43750  -0.31250  -0.18750  -0.06250   0.06250   0.18750   0.31250   0.43750 
 KGrids2:  -0.43750  -0.31250  -0.18750  -0.06250   0.06250   0.18750   0.31250   0.43750 
 KGrids3:   0.00000 
<Band_DFT>  Eigen, time=13.723035
<Band_DFT>  DM, time=0.000000
    1    C  MulP   2.0000  2.0000 sum   4.0001
    2    C  MulP   1.9998  1.9998 sum   3.9997
    3    C  MulP   2.0000  2.0000 sum   4.0001
    4    C  MulP   1.9999  1.9999 sum   3.9997
    5    C  MulP   2.0000  2.0000 sum   4.0001
    6    C  MulP   1.9999  1.9999 sum   3.9997
    7    C  MulP   2.0000  2.0000 sum   4.0001
    8    C  MulP   1.9999  1.9999 sum   3.9997
    9    C  MulP   2.0000  2.0000 sum   4.0001
   10    C  MulP   2.0000  2.0000 sum   4.0000
   11    C  MulP   2.0000  2.0000 sum   4.0000
   12    C  MulP   2.0000  2.0000 sum   4.0000
   13    C  MulP   2.0000  2.0000 sum   4.0001
   14    C  MulP   2.0000  2.0000 sum   4.0001
   15    C  MulP   2.0000  2.0000 sum   4.0001
   16    C  MulP   2.0000  2.0000 sum   4.0001
   17    C  MulP   2.0001  2.0001 sum   4.0001
   18    C  MulP   1.9997  1.9997 sum   3.9994
   19    C  MulP   2.0006  2.0006 sum   4.0011
   20    C  MulP   2.0004  2.0004 sum   4.0007
     ..........
     ......

 Sum of MulP: up   =   264.00000 down          =   264.00000
              total=   528.00000 ideal(neutral)=   528.00000
<DFT>  Total Spin Moment (muB) =  0.000000000000
<DFT>  Mixing_weight= 0.010000000000
<DFT>  Uele   = -216.765630672000  dUele     =   0.000000000000
<DFT>  NormRD =   10.203876334262  Criterion =   0.000000010000

******************* MD= 1  SCF= 3 *******************
<Poisson>  Poisson's equation using FFT...
<Set_Hamiltonian>  Hamiltonian matrix for VNA+dVH+Vxc...
<Band>  Solving the eigenvalue problem...
 KGrids1:  -0.43750  -0.31250  -0.18750  -0.06250   0.06250   0.18750   0.31250   0.43750 
 KGrids2:  -0.43750  -0.31250  -0.18750  -0.06250   0.06250   0.18750   0.31250   0.43750 
 KGrids3:   0.00000 
<Band_DFT>  Eigen, time=13.709573
<Band_DFT>  DM, time=0.000000
    1    C  MulP   2.0000  2.0000 sum   4.0001
    2    C  MulP   1.9999  1.9999 sum   3.9997
    3    C  MulP   2.0000  2.0000 sum   4.0001
    4    C  MulP   1.9999  1.9999 sum   3.9997
    5    C  MulP   2.0000  2.0000 sum   4.0001
    6    C  MulP   1.9999  1.9999 sum   3.9997
    7    C  MulP   2.0000  2.0000 sum   4.0001
    8    C  MulP   1.9999  1.9999 sum   3.9997
    9    C  MulP   2.0000  2.0000 sum   4.0001
   10    C  MulP   2.0000  2.0000 sum   4.0000
   11    C  MulP   2.0000  2.0000 sum   4.0000
   12    C  MulP   2.0000  2.0000 sum   4.0000
   13    C  MulP   2.0000  2.0000 sum   4.0001
   14    C  MulP   2.0000  2.0000 sum   4.0001
   15    C  MulP   2.0000  2.0000 sum   4.0001
   16    C  MulP   2.0000  2.0000 sum   4.0001
   17    C  MulP   2.0001  2.0001 sum   4.0001
   18    C  MulP   1.9997  1.9997 sum   3.9994
   19    C  MulP   2.0006  2.0006 sum   4.0011
   20    C  MulP   2.0004  2.0004 sum   4.0008
     ..........
     ......

 Sum of MulP: up   =   264.00000 down          =   264.00000
              total=   528.00000 ideal(neutral)=   528.00000
<DFT>  Total Spin Moment (muB) =  0.000000000000
<DFT>  Mixing_weight= 0.300000000000
<DFT>  Uele   = -217.148230998099  dUele     =   0.382600326099
<DFT>  NormRD =   10.079514258720  Criterion =   0.000000010000

******************* MD= 1  SCF= 4 *******************
<Poisson>  Poisson's equation using FFT...
<Set_Hamiltonian>  Hamiltonian matrix for VNA+dVH+Vxc...
<Band>  Solving the eigenvalue problem...
 KGrids1:  -0.43750  -0.31250  -0.18750  -0.06250   0.06250   0.18750   0.31250   0.43750 
 KGrids2:  -0.43750  -0.31250  -0.18750  -0.06250   0.06250   0.18750   0.31250   0.43750 
 KGrids3:   0.00000 
<Band_DFT>  Eigen, time=13.721233
<Band_DFT>  DM, time=0.000000
    1    C  MulP   2.0001  2.0001 sum   4.0002
    2    C  MulP   2.0000  2.0000 sum   4.0000
    3    C  MulP   2.0002  2.0002 sum   4.0004
    4    C  MulP   1.9999  1.9999 sum   3.9998
    5    C  MulP   2.0001  2.0001 sum   4.0002
    6    C  MulP   1.9999  1.9999 sum   3.9998
    7    C  MulP   2.0001  2.0001 sum   4.0002
    8    C  MulP   1.9999  1.9999 sum   3.9998
    9    C  MulP   2.0001  2.0001 sum   4.0002
   10    C  MulP   2.0002  2.0002 sum   4.0004
   11    C  MulP   2.0003  2.0003 sum   4.0006
   12    C  MulP   2.0002  2.0002 sum   4.0004
   13    C  MulP   2.0001  2.0001 sum   4.0002
   14    C  MulP   2.0001  2.0001 sum   4.0002
   15    C  MulP   2.0001  2.0001 sum   4.0002
   16    C  MulP   2.0001  2.0001 sum   4.0002
   17    C  MulP   2.0001  2.0001 sum   4.0003
   18    C  MulP   1.9999  1.9999 sum   3.9998
   19    C  MulP   2.0009  2.0009 sum   4.0018
   20    C  MulP   2.0007  2.0007 sum   4.0014
     ..........
     ......

 Sum of MulP: up   =   264.00000 down          =   264.00000
              total=   528.00000 ideal(neutral)=   528.00000
<DFT>  Total Spin Moment (muB) =  0.000000000000
<DFT>  Mixing_weight= 0.300000000000
<DFT>  Uele   = -228.507521849811  dUele     =  11.359290851712
<DFT>  NormRD =    6.525556167198  Criterion =   0.000000010000

******************* MD= 1  SCF= 5 *******************
<Poisson>  Poisson's equation using FFT...
<Set_Hamiltonian>  Hamiltonian matrix for VNA+dVH+Vxc...
<Band>  Solving the eigenvalue problem...
 KGrids1:  -0.43750  -0.31250  -0.18750  -0.06250   0.06250   0.18750   0.31250   0.43750 
 KGrids2:  -0.43750  -0.31250  -0.18750  -0.06250   0.06250   0.18750   0.31250   0.43750 
 KGrids3:   0.00000 
<Band_DFT>  Eigen, time=13.691087
<Band_DFT>  DM, time=0.000000
    1    C  MulP   2.0001  2.0001 sum   4.0002
    2    C  MulP   1.9999  1.9999 sum   3.9999
    3    C  MulP   2.0001  2.0001 sum   4.0003
    4    C  MulP   1.9999  1.9999 sum   3.9998
    5    C  MulP   2.0001  2.0001 sum   4.0002
    6    C  MulP   1.9999  1.9999 sum   3.9998
    7    C  MulP   2.0001  2.0001 sum   4.0002
    8    C  MulP   1.9999  1.9999 sum   3.9998
    9    C  MulP   2.0001  2.0001 sum   4.0002
   10    C  MulP   2.0002  2.0002 sum   4.0003
   11    C  MulP   2.0002  2.0002 sum   4.0004
   12    C  MulP   2.0002  2.0002 sum   4.0003
   13    C  MulP   2.0001  2.0001 sum   4.0002
   14    C  MulP   2.0001  2.0001 sum   4.0002
   15    C  MulP   2.0001  2.0001 sum   4.0002
   16    C  MulP   2.0001  2.0001 sum   4.0002
   17    C  MulP   2.0001  2.0001 sum   4.0003
   18    C  MulP   1.9999  1.9999 sum   3.9997
   19    C  MulP   2.0008  2.0008 sum   4.0016
   20    C  MulP   2.0006  2.0006 sum   4.0012
     ..........
     ......

 Sum of MulP: up   =   264.00000 down          =   264.00000
              total=   528.00000 ideal(neutral)=   528.00000
<DFT>  Total Spin Moment (muB) =  0.000000000000
<DFT>  Mixing_weight= 0.300000000000
<DFT>  Uele   = -236.035210504108  dUele     =   7.527688654297
<DFT>  NormRD =    4.409676229571  Criterion =   0.000000010000

******************* MD= 1  SCF= 6 *******************
<Poisson>  Poisson's equation using FFT...
<Set_Hamiltonian>  Hamiltonian matrix for VNA+dVH+Vxc...
<Band>  Solving the eigenvalue problem...
 KGrids1:  -0.43750  -0.31250  -0.18750  -0.06250   0.06250   0.18750   0.31250   0.43750 
 KGrids2:  -0.43750  -0.31250  -0.18750  -0.06250   0.06250   0.18750   0.31250   0.43750 
 KGrids3:   0.00000 
<Band_DFT>  Eigen, time=13.694648
<Band_DFT>  DM, time=0.000000
    1    C  MulP   2.0001  2.0001 sum   4.0002
    2    C  MulP   1.9999  1.9999 sum   3.9998
    3    C  MulP   2.0001  2.0001 sum   4.0002
    4    C  MulP   1.9999  1.9999 sum   3.9998
    5    C  MulP   2.0001  2.0001 sum   4.0002
    6    C  MulP   1.9999  1.9999 sum   3.9998
    7    C  MulP   2.0001  2.0001 sum   4.0002
    8    C  MulP   1.9999  1.9999 sum   3.9998
    9    C  MulP   2.0001  2.0001 sum   4.0002
   10    C  MulP   2.0001  2.0001 sum   4.0003
   11    C  MulP   2.0002  2.0002 sum   4.0003
   12    C  MulP   2.0001  2.0001 sum   4.0003
   13    C  MulP   2.0001  2.0001 sum   4.0002
   14    C  MulP   2.0001  2.0001 sum   4.0002
   15    C  MulP   2.0001  2.0001 sum   4.0002
   16    C  MulP   2.0001  2.0001 sum   4.0002
   17    C  MulP   2.0001  2.0001 sum   4.0003
   18    C  MulP   1.9998  1.9998 sum   3.9997
   19    C  MulP   2.0008  2.0008 sum   4.0015
   20    C  MulP   2.0006  2.0006 sum   4.0011
     ..........
     ......

 Sum of MulP: up   =   264.00000 down          =   264.00000
              total=   528.00000 ideal(neutral)=   528.00000
<DFT>  Total Spin Moment (muB) =  0.000000000000
<DFT>  Mixing_weight= 0.300000000000
<DFT>  Uele   = -240.983979192037  dUele     =   4.948768687930
<DFT>  NormRD =    3.004946039439  Criterion =   0.000000010000

******************* MD= 1  SCF= 7 *******************
<Poisson>  Poisson's equation using FFT...
<Set_Hamiltonian>  Hamiltonian matrix for VNA+dVH+Vxc...
<Band>  Solving the eigenvalue problem...
 KGrids1:  -0.43750  -0.31250  -0.18750  -0.06250   0.06250   0.18750   0.31250   0.43750 
 KGrids2:  -0.43750  -0.31250  -0.18750  -0.06250   0.06250   0.18750   0.31250   0.43750 
 KGrids3:   0.00000 
<Band_DFT>  Eigen, time=13.707217
<Band_DFT>  DM, time=0.000000
    1    C  MulP   2.0001  2.0001 sum   4.0002
    2    C  MulP   1.9999  1.9999 sum   3.9998
    3    C  MulP   2.0001  2.0001 sum   4.0002
    4    C  MulP   1.9999  1.9999 sum   3.9998
    5    C  MulP   2.0001  2.0001 sum   4.0002
    6    C  MulP   1.9999  1.9999 sum   3.9998
    7    C  MulP   2.0001  2.0001 sum   4.0002
    8    C  MulP   1.9999  1.9999 sum   3.9998
    9    C  MulP   2.0001  2.0001 sum   4.0002
   10    C  MulP   2.0001  2.0001 sum   4.0002
   11    C  MulP   2.0002  2.0002 sum   4.0003
   12    C  MulP   2.0001  2.0001 sum   4.0002
   13    C  MulP   2.0001  2.0001 sum   4.0002
   14    C  MulP   2.0001  2.0001 sum   4.0002
   15    C  MulP   2.0001  2.0001 sum   4.0002
   16    C  MulP   2.0001  2.0001 sum   4.0002
   17    C  MulP   2.0001  2.0001 sum   4.0003
   18    C  MulP   1.9998  1.9998 sum   3.9997
   19    C  MulP   2.0008  2.0008 sum   4.0015
   20    C  MulP   2.0006  2.0006 sum   4.0011
     ..........
     ......

 Sum of MulP: up   =   264.00000 down          =   264.00000
              total=   528.00000 ideal(neutral)=   528.00000
<DFT>  Total Spin Moment (muB) =  0.000000000000
<DFT>  Mixing_weight= 0.300000000000
<DFT>  Uele   = -244.291698077828  dUele     =   3.307718885791
<DFT>  NormRD =    2.057862861058  Criterion =   0.000000010000

******************* MD= 1  SCF= 8 *******************
<Poisson>  Poisson's equation using FFT...
<Set_Hamiltonian>  Hamiltonian matrix for VNA+dVH+Vxc...
<Band>  Solving the eigenvalue problem...
 KGrids1:  -0.43750  -0.31250  -0.18750  -0.06250   0.06250   0.18750   0.31250   0.43750 
 KGrids2:  -0.43750  -0.31250  -0.18750  -0.06250   0.06250   0.18750   0.31250   0.43750 
 KGrids3:   0.00000 
<Band_DFT>  Eigen, time=13.698886
<Band_DFT>  DM, time=0.000000
    1    C  MulP   2.0001  2.0001 sum   4.0002
    2    C  MulP   1.9999  1.9999 sum   3.9998
    3    C  MulP   2.0001  2.0001 sum   4.0002
    4    C  MulP   1.9999  1.9999 sum   3.9998
    5    C  MulP   2.0001  2.0001 sum   4.0002
    6    C  MulP   1.9999  1.9999 sum   3.9998
    7    C  MulP   2.0001  2.0001 sum   4.0002
    8    C  MulP   1.9999  1.9999 sum   3.9997
    9    C  MulP   2.0001  2.0001 sum   4.0002
   10    C  MulP   2.0001  2.0001 sum   4.0002
   11    C  MulP   2.0002  2.0002 sum   4.0003
   12    C  MulP   2.0001  2.0001 sum   4.0002
   13    C  MulP   2.0001  2.0001 sum   4.0002
   14    C  MulP   2.0001  2.0001 sum   4.0002
   15    C  MulP   2.0001  2.0001 sum   4.0002
   16    C  MulP   2.0001  2.0001 sum   4.0002
   17    C  MulP   2.0001  2.0001 sum   4.0002
   18    C  MulP   1.9998  1.9998 sum   3.9997
   19    C  MulP   2.0008  2.0008 sum   4.0016
   20    C  MulP   2.0006  2.0006 sum   4.0011
     ..........
     ......

 Sum of MulP: up   =   264.00000 down          =   264.00000
              total=   528.00000 ideal(neutral)=   528.00000
<DFT>  Total Spin Moment (muB) =  0.000000000000
<DFT>  Mixing_weight= 0.300000000000
<DFT>  Uele   = -246.558480487920  dUele     =   2.266782410092
<DFT>  NormRD =    1.415387779582  Criterion =   0.000000010000

******************* MD= 1  SCF= 9 *******************
<Poisson>  Poisson's equation using FFT...
<Set_Hamiltonian>  Hamiltonian matrix for VNA+dVH+Vxc...
<Band>  Solving the eigenvalue problem...
 KGrids1:  -0.43750  -0.31250  -0.18750  -0.06250   0.06250   0.18750   0.31250   0.43750 
 KGrids2:  -0.43750  -0.31250  -0.18750  -0.06250   0.06250   0.18750   0.31250   0.43750 
 KGrids3:   0.00000 
<Band_DFT>  Eigen, time=13.682999
<Band_DFT>  DM, time=0.000000
    1    C  MulP   2.0001  2.0001 sum   4.0002
    2    C  MulP   1.9999  1.9999 sum   3.9998
    3    C  MulP   2.0001  2.0001 sum   4.0002
    4    C  MulP   1.9999  1.9999 sum   3.9998
    5    C  MulP   2.0001  2.0001 sum   4.0002
    6    C  MulP   1.9999  1.9999 sum   3.9997
    7    C  MulP   2.0001  2.0001 sum   4.0002
    8    C  MulP   1.9999  1.9999 sum   3.9997
    9    C  MulP   2.0001  2.0001 sum   4.0002
   10    C  MulP   2.0001  2.0001 sum   4.0002
   11    C  MulP   2.0002  2.0002 sum   4.0003
   12    C  MulP   2.0001  2.0001 sum   4.0002
   13    C  MulP   2.0001  2.0001 sum   4.0002
   14    C  MulP   2.0001  2.0001 sum   4.0002
   15    C  MulP   2.0001  2.0001 sum   4.0002
   16    C  MulP   2.0001  2.0001 sum   4.0002
   17    C  MulP   2.0001  2.0001 sum   4.0002
   18    C  MulP   1.9998  1.9998 sum   3.9997
   19    C  MulP   2.0008  2.0008 sum   4.0016
   20    C  MulP   2.0006  2.0006 sum   4.0011
     ..........
     ......

 Sum of MulP: up   =   264.00000 down          =   264.00000
              total=   528.00000 ideal(neutral)=   528.00000
<DFT>  Total Spin Moment (muB) =  0.000000000000
<DFT>  Mixing_weight= 0.300000000000
<DFT>  Uele   = -248.156755985565  dUele     =   1.598275497645
<DFT>  NormRD =    0.977215717546  Criterion =   0.000000010000

******************* MD= 1  SCF=10 *******************
<Poisson>  Poisson's equation using FFT...
<Set_Hamiltonian>  Hamiltonian matrix for VNA+dVH+Vxc...
<Band>  Solving the eigenvalue problem...
 KGrids1:  -0.43750  -0.31250  -0.18750  -0.06250   0.06250   0.18750   0.31250   0.43750 
 KGrids2:  -0.43750  -0.31250  -0.18750  -0.06250   0.06250   0.18750   0.31250   0.43750 
 KGrids3:   0.00000 
<Band_DFT>  Eigen, time=13.704419
<Band_DFT>  DM, time=0.000000
    1    C  MulP   2.0001  2.0001 sum   4.0002
    2    C  MulP   1.9999  1.9999 sum   3.9998
    3    C  MulP   2.0001  2.0001 sum   4.0002
    4    C  MulP   1.9999  1.9999 sum   3.9998
    5    C  MulP   2.0001  2.0001 sum   4.0002
    6    C  MulP   1.9999  1.9999 sum   3.9997
    7    C  MulP   2.0001  2.0001 sum   4.0002
    8    C  MulP   1.9999  1.9999 sum   3.9997
    9    C  MulP   2.0001  2.0001 sum   4.0002
   10    C  MulP   2.0001  2.0001 sum   4.0002
   11    C  MulP   2.0002  2.0002 sum   4.0003
   12    C  MulP   2.0001  2.0001 sum   4.0002
   13    C  MulP   2.0001  2.0001 sum   4.0002
   14    C  MulP   2.0001  2.0001 sum   4.0002
   15    C  MulP   2.0001  2.0001 sum   4.0001
   16    C  MulP   2.0001  2.0001 sum   4.0002
   17    C  MulP   2.0001  2.0001 sum   4.0002
   18    C  MulP   1.9998  1.9998 sum   3.9997
   19    C  MulP   2.0008  2.0008 sum   4.0016
   20    C  MulP   2.0006  2.0006 sum   4.0011
     ..........
     ......

 Sum of MulP: up   =   264.00000 down          =   264.00000
              total=   528.00000 ideal(neutral)=   528.00000
<DFT>  Total Spin Moment (muB) =  0.000000000000
<DFT>  Mixing_weight= 0.300000000000
<DFT>  Uele   = -249.317869842477  dUele     =   1.161113856912
<DFT>  NormRD =    0.676860367314  Criterion =   0.000000010000

******************* MD= 1  SCF=11 *******************
<Poisson>  Poisson's equation using FFT...
<Set_Hamiltonian>  Hamiltonian matrix for VNA+dVH+Vxc...
<Band>  Solving the eigenvalue problem...
 KGrids1:  -0.43750  -0.31250  -0.18750  -0.06250   0.06250   0.18750   0.31250   0.43750 
 KGrids2:  -0.43750  -0.31250  -0.18750  -0.06250   0.06250   0.18750   0.31250   0.43750 
 KGrids3:   0.00000 
<Band_DFT>  Eigen, time=13.710241
<Band_DFT>  DM, time=0.000000
    1    C  MulP   2.0001  2.0001 sum   4.0002
    2    C  MulP   1.9999  1.9999 sum   3.9998
    3    C  MulP   2.0001  2.0001 sum   4.0002
    4    C  MulP   1.9999  1.9999 sum   3.9997
    5    C  MulP   2.0001  2.0001 sum   4.0002
    6    C  MulP   1.9999  1.9999 sum   3.9997
    7    C  MulP   2.0001  2.0001 sum   4.0002
    8    C  MulP   1.9999  1.9999 sum   3.9997
    9    C  MulP   2.0001  2.0001 sum   4.0002
   10    C  MulP   2.0001  2.0001 sum   4.0002
   11    C  MulP   2.0002  2.0002 sum   4.0003
   12    C  MulP   2.0001  2.0001 sum   4.0002
   13    C  MulP   2.0001  2.0001 sum   4.0002
   14    C  MulP   2.0001  2.0001 sum   4.0002
   15    C  MulP   2.0001  2.0001 sum   4.0001
   16    C  MulP   2.0001  2.0001 sum   4.0002
   17    C  MulP   2.0001  2.0001 sum   4.0002
   18    C  MulP   1.9998  1.9998 sum   3.9997
   19    C  MulP   2.0008  2.0008 sum   4.0016
   20    C  MulP   2.0006  2.0006 sum   4.0012
     ..........
     ......

 Sum of MulP: up   =   264.00000 down          =   264.00000
              total=   528.00000 ideal(neutral)=   528.00000
<DFT>  Total Spin Moment (muB) =  0.000000000000
<DFT>  Mixing_weight= 0.300000000000
<DFT>  Uele   = -250.186561955427  dUele     =   0.868692112950
<DFT>  NormRD =    0.470302014061  Criterion =   0.000000010000

******************* MD= 1  SCF=12 *******************
<Poisson>  Poisson's equation using FFT...
<Set_Hamiltonian>  Hamiltonian matrix for VNA+dVH+Vxc...
<Band>  Solving the eigenvalue problem...
 KGrids1:  -0.43750  -0.31250  -0.18750  -0.06250   0.06250   0.18750   0.31250   0.43750 
 KGrids2:  -0.43750  -0.31250  -0.18750  -0.06250   0.06250   0.18750   0.31250   0.43750 
 KGrids3:   0.00000 
<Band_DFT>  Eigen, time=13.690130
<Band_DFT>  DM, time=0.000000
    1    C  MulP   2.0001  2.0001 sum   4.0002
    2    C  MulP   1.9999  1.9999 sum   3.9998
    3    C  MulP   2.0001  2.0001 sum   4.0002
    4    C  MulP   1.9999  1.9999 sum   3.9997
    5    C  MulP   2.0001  2.0001 sum   4.0002
    6    C  MulP   1.9999  1.9999 sum   3.9997
    7    C  MulP   2.0001  2.0001 sum   4.0002
    8    C  MulP   1.9999  1.9999 sum   3.9997
    9    C  MulP   2.0001  2.0001 sum   4.0002
   10    C  MulP   2.0001  2.0001 sum   4.0002
   11    C  MulP   2.0002  2.0002 sum   4.0003
   12    C  MulP   2.0001  2.0001 sum   4.0002
   13    C  MulP   2.0001  2.0001 sum   4.0002
   14    C  MulP   2.0001  2.0001 sum   4.0002
   15    C  MulP   2.0001  2.0001 sum   4.0001
   16    C  MulP   2.0001  2.0001 sum   4.0002
   17    C  MulP   2.0001  2.0001 sum   4.0002
   18    C  MulP   1.9998  1.9998 sum   3.9997
   19    C  MulP   2.0008  2.0008 sum   4.0016
   20    C  MulP   2.0006  2.0006 sum   4.0012
     ..........
     ......

 Sum of MulP: up   =   264.00000 down          =   264.00000
              total=   528.00000 ideal(neutral)=   528.00000
<DFT>  Total Spin Moment (muB) =  0.000000000000
<DFT>  Mixing_weight= 0.300000000000
<DFT>  Uele   = -250.855388450183  dUele     =   0.668826494756
<DFT>  NormRD =    0.327797539676  Criterion =   0.000000010000

******************* MD= 1  SCF=13 *******************
<Poisson>  Poisson's equation using FFT...
<Set_Hamiltonian>  Hamiltonian matrix for VNA+dVH+Vxc...
<Band>  Solving the eigenvalue problem...
 KGrids1:  -0.43750  -0.31250  -0.18750  -0.06250   0.06250   0.18750   0.31250   0.43750 
 KGrids2:  -0.43750  -0.31250  -0.18750  -0.06250   0.06250   0.18750   0.31250   0.43750 
 KGrids3:   0.00000 
<Band_DFT>  Eigen, time=13.713173
<Band_DFT>  DM, time=0.000000
    1    C  MulP   2.0001  2.0001 sum   4.0002
    2    C  MulP   1.9999  1.9999 sum   3.9998
    3    C  MulP   2.0001  2.0001 sum   4.0002
    4    C  MulP   1.9999  1.9999 sum   3.9997
    5    C  MulP   2.0001  2.0001 sum   4.0002
    6    C  MulP   1.9999  1.9999 sum   3.9997
    7    C  MulP   2.0001  2.0001 sum   4.0002
    8    C  MulP   1.9999  1.9999 sum   3.9997
    9    C  MulP   2.0001  2.0001 sum   4.0002
   10    C  MulP   2.0001  2.0001 sum   4.0002
   11    C  MulP   2.0002  2.0002 sum   4.0003
   12    C  MulP   2.0001  2.0001 sum   4.0002
   13    C  MulP   2.0001  2.0001 sum   4.0002
   14    C  MulP   2.0001  2.0001 sum   4.0002
   15    C  MulP   2.0001  2.0001 sum   4.0001
   16    C  MulP   2.0001  2.0001 sum   4.0002
   17    C  MulP   2.0001  2.0001 sum   4.0002
   18    C  MulP   1.9999  1.9999 sum   3.9997
   19    C  MulP   2.0008  2.0008 sum   4.0016
   20    C  MulP   2.0006  2.0006 sum   4.0012
     ..........
     ......

 Sum of MulP: up   =   264.00000 down          =   264.00000
              total=   528.00000 ideal(neutral)=   528.00000
<DFT>  Total Spin Moment (muB) =  0.000000000000
<DFT>  Mixing_weight= 0.300000000000
<DFT>  Uele   = -251.383869774582  dUele     =   0.528481324398
<DFT>  NormRD =    0.229210052840  Criterion =   0.000000010000

******************* MD= 1  SCF=14 *******************
<Poisson>  Poisson's equation using FFT...
<Set_Hamiltonian>  Hamiltonian matrix for VNA+dVH+Vxc...
<Band>  Solving the eigenvalue problem...
 KGrids1:  -0.43750  -0.31250  -0.18750  -0.06250   0.06250   0.18750   0.31250   0.43750 
 KGrids2:  -0.43750  -0.31250  -0.18750  -0.06250   0.06250   0.18750   0.31250   0.43750 
 KGrids3:   0.00000 
<Band_DFT>  Eigen, time=13.712392
<Band_DFT>  DM, time=0.000000
    1    C  MulP   2.0001  2.0001 sum   4.0002
    2    C  MulP   1.9999  1.9999 sum   3.9998
    3    C  MulP   2.0001  2.0001 sum   4.0002
    4    C  MulP   1.9999  1.9999 sum   3.9997
    5    C  MulP   2.0001  2.0001 sum   4.0002
    6    C  MulP   1.9999  1.9999 sum   3.9997
    7    C  MulP   2.0001  2.0001 sum   4.0002
    8    C  MulP   1.9999  1.9999 sum   3.9997
    9    C  MulP   2.0001  2.0001 sum   4.0002
   10    C  MulP   2.0001  2.0001 sum   4.0002
   11    C  MulP   2.0002  2.0002 sum   4.0003
   12    C  MulP   2.0001  2.0001 sum   4.0002
   13    C  MulP   2.0001  2.0001 sum   4.0002
   14    C  MulP   2.0001  2.0001 sum   4.0002
   15    C  MulP   2.0001  2.0001 sum   4.0001
   16    C  MulP   2.0001  2.0001 sum   4.0002
   17    C  MulP   2.0001  2.0001 sum   4.0002
   18    C  MulP   1.9999  1.9999 sum   3.9997
   19    C  MulP   2.0008  2.0008 sum   4.0016
   20    C  MulP   2.0006  2.0006 sum   4.0012
     ..........
     ......

 Sum of MulP: up   =   264.00000 down          =   264.00000
              total=   528.00000 ideal(neutral)=   528.00000
<DFT>  Total Spin Moment (muB) =  0.000000000000
<DFT>  Mixing_weight= 0.300000000000
<DFT>  Uele   = -251.810901386168  dUele     =   0.427031611586
<DFT>  NormRD =    0.160926299051  Criterion =   0.000000010000

******************* MD= 1  SCF=15 *******************
<Poisson>  Poisson's equation using FFT...
<Set_Hamiltonian>  Hamiltonian matrix for VNA+dVH+Vxc...
<Band>  Solving the eigenvalue problem...
 KGrids1:  -0.43750  -0.31250  -0.18750  -0.06250   0.06250   0.18750   0.31250   0.43750 
 KGrids2:  -0.43750  -0.31250  -0.18750  -0.06250   0.06250   0.18750   0.31250   0.43750 
 KGrids3:   0.00000 
<Band_DFT>  Eigen, time=13.696863
<Band_DFT>  DM, time=0.000000
    1    C  MulP   2.0001  2.0001 sum   4.0002
    2    C  MulP   1.9999  1.9999 sum   3.9998
    3    C  MulP   2.0001  2.0001 sum   4.0002
    4    C  MulP   1.9999  1.9999 sum   3.9997
    5    C  MulP   2.0001  2.0001 sum   4.0002
    6    C  MulP   1.9999  1.9999 sum   3.9997
    7    C  MulP   2.0001  2.0001 sum   4.0002
    8    C  MulP   1.9999  1.9999 sum   3.9997
    9    C  MulP   2.0001  2.0001 sum   4.0002
   10    C  MulP   2.0001  2.0001 sum   4.0002
   11    C  MulP   2.0002  2.0002 sum   4.0003
   12    C  MulP   2.0001  2.0001 sum   4.0002
   13    C  MulP   2.0001  2.0001 sum   4.0002
   14    C  MulP   2.0001  2.0001 sum   4.0002
   15    C  MulP   2.0001  2.0001 sum   4.0001
   16    C  MulP   2.0001  2.0001 sum   4.0002
   17    C  MulP   2.0001  2.0001 sum   4.0002
   18    C  MulP   1.9999  1.9999 sum   3.9997
   19    C  MulP   2.0008  2.0008 sum   4.0016
   20    C  MulP   2.0006  2.0006 sum   4.0012
     ..........
     ......

 Sum of MulP: up   =   264.00000 down          =   264.00000
              total=   528.00000 ideal(neutral)=   528.00000
<DFT>  Total Spin Moment (muB) =  0.000000000000
<DFT>  Mixing_weight= 0.030000000000
<DFT>  Uele   = -252.162701209455  dUele     =   0.351799823287
<DFT>  NormRD =    0.114652351531  Criterion =   0.000000010000

******************* MD= 1  SCF=16 *******************
<Poisson>  Poisson's equation using FFT...
<Set_Hamiltonian>  Hamiltonian matrix for VNA+dVH+Vxc...
<Band>  Solving the eigenvalue problem...
 KGrids1:  -0.43750  -0.31250  -0.18750  -0.06250   0.06250   0.18750   0.31250   0.43750 
 KGrids2:  -0.43750  -0.31250  -0.18750  -0.06250   0.06250   0.18750   0.31250   0.43750 
 KGrids3:   0.00000 
<Band_DFT>  Eigen, time=13.717455
<Band_DFT>  DM, time=0.000001
    1    C  MulP   2.0001  2.0001 sum   4.0001
    2    C  MulP   1.9999  1.9999 sum   3.9998
    3    C  MulP   2.0001  2.0001 sum   4.0002
    4    C  MulP   1.9999  1.9999 sum   3.9997
    5    C  MulP   2.0001  2.0001 sum   4.0001
    6    C  MulP   1.9999  1.9999 sum   3.9997
    7    C  MulP   2.0001  2.0001 sum   4.0001
    8    C  MulP   1.9999  1.9999 sum   3.9997
    9    C  MulP   2.0001  2.0001 sum   4.0002
   10    C  MulP   2.0001  2.0001 sum   4.0002
   11    C  MulP   2.0002  2.0002 sum   4.0003
   12    C  MulP   2.0001  2.0001 sum   4.0002
   13    C  MulP   2.0001  2.0001 sum   4.0002
   14    C  MulP   2.0001  2.0001 sum   4.0001
   15    C  MulP   2.0001  2.0001 sum   4.0001
   16    C  MulP   2.0001  2.0001 sum   4.0001
   17    C  MulP   2.0001  2.0001 sum   4.0002
   18    C  MulP   1.9999  1.9999 sum   3.9997
   19    C  MulP   2.0008  2.0008 sum   4.0017
   20    C  MulP   2.0006  2.0006 sum   4.0012
     ..........
     ......

 Sum of MulP: up   =   264.00000 down          =   264.00000
              total=   528.00000 ideal(neutral)=   528.00000
<DFT>  Total Spin Moment (muB) =  0.000000000000
<DFT>  Mixing_weight= 0.030000000000
<DFT>  Uele   = -254.187832902117  dUele     =   2.025131692662
<DFT>  NormRD =    0.014508659004  Criterion =   0.000000010000

******************* MD= 1  SCF=17 *******************
<Poisson>  Poisson's equation using FFT...
<Set_Hamiltonian>  Hamiltonian matrix for VNA+dVH+Vxc...
<Band>  Solving the eigenvalue problem...
 KGrids1:  -0.43750  -0.31250  -0.18750  -0.06250   0.06250   0.18750   0.31250   0.43750 
 KGrids2:  -0.43750  -0.31250  -0.18750  -0.06250   0.06250   0.18750   0.31250   0.43750 
 KGrids3:   0.00000 
<Band_DFT>  Eigen, time=13.689871
<Band_DFT>  DM, time=0.000000
    1    C  MulP   2.0001  2.0001 sum   4.0002
    2    C  MulP   1.9999  1.9999 sum   3.9998
    3    C  MulP   2.0001  2.0001 sum   4.0003
    4    C  MulP   1.9999  1.9999 sum   3.9998
    5    C  MulP   2.0001  2.0001 sum   4.0002
    6    C  MulP   1.9999  1.9999 sum   3.9998
    7    C  MulP   2.0001  2.0001 sum   4.0002
    8    C  MulP   1.9999  1.9999 sum   3.9998
    9    C  MulP   2.0001  2.0001 sum   4.0002
   10    C  MulP   2.0001  2.0001 sum   4.0003
   11    C  MulP   2.0002  2.0002 sum   4.0003
   12    C  MulP   2.0001  2.0001 sum   4.0003
   13    C  MulP   2.0001  2.0001 sum   4.0002
   14    C  MulP   2.0001  2.0001 sum   4.0002
   15    C  MulP   2.0001  2.0001 sum   4.0002
   16    C  MulP   2.0001  2.0001 sum   4.0002
   17    C  MulP   2.0001  2.0001 sum   4.0003
   18    C  MulP   1.9998  1.9998 sum   3.9997
   19    C  MulP   2.0008  2.0008 sum   4.0016
   20    C  MulP   2.0006  2.0006 sum   4.0011
     ..........
     ......

 Sum of MulP: up   =   264.00000 down          =   264.00000
              total=   528.00000 ideal(neutral)=   528.00000
<DFT>  Total Spin Moment (muB) =  0.000000000000
<DFT>  Mixing_weight= 0.030000000000
<DFT>  Uele   = -254.355199036103  dUele     =   0.167366133986
<DFT>  NormRD =    0.017953354731  Criterion =   0.000000010000

******************* MD= 1  SCF=18 *******************
<Poisson>  Poisson's equation using FFT...
<Set_Hamiltonian>  Hamiltonian matrix for VNA+dVH+Vxc...
<Band>  Solving the eigenvalue problem...
 KGrids1:  -0.43750  -0.31250  -0.18750  -0.06250   0.06250   0.18750   0.31250   0.43750 
 KGrids2:  -0.43750  -0.31250  -0.18750  -0.06250   0.06250   0.18750   0.31250   0.43750 
 KGrids3:   0.00000 
<Band_DFT>  Eigen, time=13.725392
<Band_DFT>  DM, time=0.000000
    1    C  MulP   2.0001  2.0001 sum   4.0001
    2    C  MulP   1.9999  1.9999 sum   3.9997
    3    C  MulP   2.0001  2.0001 sum   4.0002
    4    C  MulP   1.9999  1.9999 sum   3.9997
    5    C  MulP   2.0001  2.0001 sum   4.0001
    6    C  MulP   1.9999  1.9999 sum   3.9997
    7    C  MulP   2.0001  2.0001 sum   4.0001
    8    C  MulP   1.9999  1.9999 sum   3.9997
    9    C  MulP   2.0001  2.0001 sum   4.0002
   10    C  MulP   2.0001  2.0001 sum   4.0002
   11    C  MulP   2.0002  2.0002 sum   4.0003
   12    C  MulP   2.0001  2.0001 sum   4.0002
   13    C  MulP   2.0001  2.0001 sum   4.0002
   14    C  MulP   2.0001  2.0001 sum   4.0001
   15    C  MulP   2.0001  2.0001 sum   4.0001
   16    C  MulP   2.0001  2.0001 sum   4.0001
   17    C  MulP   2.0001  2.0001 sum   4.0002
   18    C  MulP   1.9999  1.9999 sum   3.9997
   19    C  MulP   2.0008  2.0008 sum   4.0017
   20    C  MulP   2.0006  2.0006 sum   4.0013
     ..........
     ......

 Sum of MulP: up   =   264.00000 down          =   264.00000
              total=   528.00000 ideal(neutral)=   528.00000
<DFT>  Total Spin Moment (muB) =  0.000000000000
<DFT>  Mixing_weight= 0.030000000000
<DFT>  Uele   = -254.400688303362  dUele     =   0.045489267259
<DFT>  NormRD =    0.002785935934  Criterion =   0.000000010000

******************* MD= 1  SCF=19 *******************
<Poisson>  Poisson's equation using FFT...
<Set_Hamiltonian>  Hamiltonian matrix for VNA+dVH+Vxc...
<Band>  Solving the eigenvalue problem...
 KGrids1:  -0.43750  -0.31250  -0.18750  -0.06250   0.06250   0.18750   0.31250   0.43750 
 KGrids2:  -0.43750  -0.31250  -0.18750  -0.06250   0.06250   0.18750   0.31250   0.43750 
 KGrids3:   0.00000 
<Band_DFT>  Eigen, time=13.688507
<Band_DFT>  DM, time=0.000001
    1    C  MulP   2.0001  2.0001 sum   4.0002
    2    C  MulP   1.9999  1.9999 sum   3.9999
    3    C  MulP   2.0001  2.0001 sum   4.0003
    4    C  MulP   1.9999  1.9999 sum   3.9998
    5    C  MulP   2.0001  2.0001 sum   4.0002
    6    C  MulP   1.9999  1.9999 sum   3.9998
    7    C  MulP   2.0001  2.0001 sum   4.0002
    8    C  MulP   1.9999  1.9999 sum   3.9998
    9    C  MulP   2.0001  2.0001 sum   4.0002
   10    C  MulP   2.0001  2.0001 sum   4.0003
   11    C  MulP   2.0002  2.0002 sum   4.0003
   12    C  MulP   2.0001  2.0001 sum   4.0003
   13    C  MulP   2.0001  2.0001 sum   4.0002
   14    C  MulP   2.0001  2.0001 sum   4.0002
   15    C  MulP   2.0001  2.0001 sum   4.0002
   16    C  MulP   2.0001  2.0001 sum   4.0002
   17    C  MulP   2.0001  2.0001 sum   4.0003
   18    C  MulP   1.9998  1.9998 sum   3.9997
   19    C  MulP   2.0008  2.0008 sum   4.0015
   20    C  MulP   2.0005  2.0005 sum   4.0011
     ..........
     ......

 Sum of MulP: up   =   264.00000 down          =   264.00000
              total=   528.00000 ideal(neutral)=   528.00000
<DFT>  Total Spin Moment (muB) =  0.000000000000
<DFT>  Mixing_weight= 0.030000000000
<DFT>  Uele   = -254.477006643530  dUele     =   0.076318340168
<DFT>  NormRD =    0.003725968204  Criterion =   0.000000010000

******************* MD= 1  SCF=20 *******************
<Poisson>  Poisson's equation using FFT...
<Set_Hamiltonian>  Hamiltonian matrix for VNA+dVH+Vxc...
<Band>  Solving the eigenvalue problem...
 KGrids1:  -0.43750  -0.31250  -0.18750  -0.06250   0.06250   0.18750   0.31250   0.43750 
 KGrids2:  -0.43750  -0.31250  -0.18750  -0.06250   0.06250   0.18750   0.31250   0.43750 
 KGrids3:   0.00000 
<Band_DFT>  Eigen, time=13.689237
<Band_DFT>  DM, time=0.000000
    1    C  MulP   2.0001  2.0001 sum   4.0002
    2    C  MulP   1.9999  1.9999 sum   3.9998
    3    C  MulP   2.0001  2.0001 sum   4.0002
    4    C  MulP   1.9999  1.9999 sum   3.9997
    5    C  MulP   2.0001  2.0001 sum   4.0001
    6    C  MulP   1.9999  1.9999 sum   3.9997
    7    C  MulP   2.0001  2.0001 sum   4.0001
    8    C  MulP   1.9999  1.9999 sum   3.9997
    9    C  MulP   2.0001  2.0001 sum   4.0002
   10    C  MulP   2.0001  2.0001 sum   4.0003
   11    C  MulP   2.0002  2.0002 sum   4.0003
   12    C  MulP   2.0001  2.0001 sum   4.0003
   13    C  MulP   2.0001  2.0001 sum   4.0002
   14    C  MulP   2.0001  2.0001 sum   4.0001
   15    C  MulP   2.0001  2.0001 sum   4.0001
   16    C  MulP   2.0001  2.0001 sum   4.0001
   17    C  MulP   2.0001  2.0001 sum   4.0002
   18    C  MulP   1.9999  1.9999 sum   3.9997
   19    C  MulP   2.0008  2.0008 sum   4.0017
   20    C  MulP   2.0006  2.0006 sum   4.0012
     ..........
     ......

 Sum of MulP: up   =   264.00000 down          =   264.00000
              total=   528.00000 ideal(neutral)=   528.00000
<DFT>  Total Spin Moment (muB) =  0.000000000000
<DFT>  Mixing_weight= 0.030000000000
<DFT>  Uele   = -254.491350327297  dUele     =   0.014343683767
<DFT>  NormRD =    0.000571333219  Criterion =   0.000000010000

******************* MD= 1  SCF=21 *******************
<Poisson>  Poisson's equation using FFT...
<Set_Hamiltonian>  Hamiltonian matrix for VNA+dVH+Vxc...
<Band>  Solving the eigenvalue problem...
 KGrids1:  -0.43750  -0.31250  -0.18750  -0.06250   0.06250   0.18750   0.31250   0.43750 
 KGrids2:  -0.43750  -0.31250  -0.18750  -0.06250   0.06250   0.18750   0.31250   0.43750 
 KGrids3:   0.00000 
<Band_DFT>  Eigen, time=13.699022
<Band_DFT>  DM, time=0.000000
    1    C  MulP   2.0001  2.0001 sum   4.0002
    2    C  MulP   1.9999  1.9999 sum   3.9998
    3    C  MulP   2.0001  2.0001 sum   4.0002
    4    C  MulP   1.9999  1.9999 sum   3.9997
    5    C  MulP   2.0001  2.0001 sum   4.0002
    6    C  MulP   1.9999  1.9999 sum   3.9997
    7    C  MulP   2.0001  2.0001 sum   4.0002
    8    C  MulP   1.9999  1.9999 sum   3.9997
    9    C  MulP   2.0001  2.0001 sum   4.0002
   10    C  MulP   2.0001  2.0001 sum   4.0002
   11    C  MulP   2.0002  2.0002 sum   4.0003
   12    C  MulP   2.0001  2.0001 sum   4.0002
   13    C  MulP   2.0001  2.0001 sum   4.0002
   14    C  MulP   2.0001  2.0001 sum   4.0002
   15    C  MulP   2.0001  2.0001 sum   4.0002
   16    C  MulP   2.0001  2.0001 sum   4.0002
   17    C  MulP   2.0001  2.0001 sum   4.0002
   18    C  MulP   1.9998  1.9998 sum   3.9997
   19    C  MulP   2.0008  2.0008 sum   4.0016
   20    C  MulP   2.0006  2.0006 sum   4.0012
     ..........
     ......

 Sum of MulP: up   =   264.00000 down          =   264.00000
              total=   528.00000 ideal(neutral)=   528.00000
<DFT>  Total Spin Moment (muB) =  0.000000000000
<DFT>  Mixing_weight= 0.030000000000
<DFT>  Uele   = -254.506958505074  dUele     =   0.015608177777
<DFT>  NormRD =    0.000508562024  Criterion =   0.000000010000

******************* MD= 1  SCF=22 *******************
<Poisson>  Poisson's equation using FFT...
<Set_Hamiltonian>  Hamiltonian matrix for VNA+dVH+Vxc...
<Band>  Solving the eigenvalue problem...
 KGrids1:  -0.43750  -0.31250  -0.18750  -0.06250   0.06250   0.18750   0.31250   0.43750 
 KGrids2:  -0.43750  -0.31250  -0.18750  -0.06250   0.06250   0.18750   0.31250   0.43750 
 KGrids3:   0.00000 
<Band_DFT>  Eigen, time=13.696114
<Band_DFT>  DM, time=0.000000
    1    C  MulP   2.0001  2.0001 sum   4.0002
    2    C  MulP   1.9999  1.9999 sum   3.9998
    3    C  MulP   2.0001  2.0001 sum   4.0002
    4    C  MulP   1.9999  1.9999 sum   3.9997
    5    C  MulP   2.0001  2.0001 sum   4.0001
    6    C  MulP   1.9999  1.9999 sum   3.9997
    7    C  MulP   2.0001  2.0001 sum   4.0001
    8    C  MulP   1.9999  1.9999 sum   3.9997
    9    C  MulP   2.0001  2.0001 sum   4.0002
   10    C  MulP   2.0001  2.0001 sum   4.0003
   11    C  MulP   2.0002  2.0002 sum   4.0003
   12    C  MulP   2.0001  2.0001 sum   4.0003
   13    C  MulP   2.0001  2.0001 sum   4.0002
   14    C  MulP   2.0001  2.0001 sum   4.0001
   15    C  MulP   2.0001  2.0001 sum   4.0001
   16    C  MulP   2.0001  2.0001 sum   4.0001
   17    C  MulP   2.0001  2.0001 sum   4.0002
   18    C  MulP   1.9999  1.9999 sum   3.9997
   19    C  MulP   2.0008  2.0008 sum   4.0016
   20    C  MulP   2.0006  2.0006 sum   4.0012
     ..........
     ......

 Sum of MulP: up   =   264.00000 down          =   264.00000
              total=   528.00000 ideal(neutral)=   528.00000
<DFT>  Total Spin Moment (muB) =  0.000000000000
<DFT>  Mixing_weight= 0.030000000000
<DFT>  Uele   = -254.512530710292  dUele     =   0.005572205218
<DFT>  NormRD =    0.000154892030  Criterion =   0.000000010000

******************* MD= 1  SCF=23 *******************
<Poisson>  Poisson's equation using FFT...
<Set_Hamiltonian>  Hamiltonian matrix for VNA+dVH+Vxc...
<Band>  Solving the eigenvalue problem...
 KGrids1:  -0.43750  -0.31250  -0.18750  -0.06250   0.06250   0.18750   0.31250   0.43750 
 KGrids2:  -0.43750  -0.31250  -0.18750  -0.06250   0.06250   0.18750   0.31250   0.43750 
 KGrids3:   0.00000 
<Band_DFT>  Eigen, time=13.701559
<Band_DFT>  DM, time=0.000000
    1    C  MulP   2.0001  2.0001 sum   4.0002
    2    C  MulP   1.9999  1.9999 sum   3.9998
    3    C  MulP   2.0001  2.0001 sum   4.0002
    4    C  MulP   1.9999  1.9999 sum   3.9997
    5    C  MulP   2.0001  2.0001 sum   4.0002
    6    C  MulP   1.9999  1.9999 sum   3.9997
    7    C  MulP   2.0001  2.0001 sum   4.0002
    8    C  MulP   1.9999  1.9999 sum   3.9997
    9    C  MulP   2.0001  2.0001 sum   4.0002
   10    C  MulP   2.0001  2.0001 sum   4.0002
   11    C  MulP   2.0002  2.0002 sum   4.0003
   12    C  MulP   2.0001  2.0001 sum   4.0002
   13    C  MulP   2.0001  2.0001 sum   4.0002
   14    C  MulP   2.0001  2.0001 sum   4.0002
   15    C  MulP   2.0001  2.0001 sum   4.0001
   16    C  MulP   2.0001  2.0001 sum   4.0002
   17    C  MulP   2.0001  2.0001 sum   4.0002
   18    C  MulP   1.9999  1.9999 sum   3.9997
   19    C  MulP   2.0008  2.0008 sum   4.0016
   20    C  MulP   2.0006  2.0006 sum   4.0012
     ..........
     ......

 Sum of MulP: up   =   264.00000 down          =   264.00000
              total=   528.00000 ideal(neutral)=   528.00000
<DFT>  Total Spin Moment (muB) =  0.000000000000
<DFT>  Mixing_weight= 0.030000000000
<DFT>  Uele   = -254.514047237599  dUele     =   0.001516527307
<DFT>  NormRD =    0.000045388489  Criterion =   0.000000010000

******************* MD= 1  SCF=24 *******************
<Poisson>  Poisson's equation using FFT...
<Set_Hamiltonian>  Hamiltonian matrix for VNA+dVH+Vxc...
<Band>  Solving the eigenvalue problem...
 KGrids1:  -0.43750  -0.31250  -0.18750  -0.06250   0.06250   0.18750   0.31250   0.43750 
 KGrids2:  -0.43750  -0.31250  -0.18750  -0.06250   0.06250   0.18750   0.31250   0.43750 
 KGrids3:   0.00000 
<Band_DFT>  Eigen, time=13.684305
<Band_DFT>  DM, time=0.000000
    1    C  MulP   2.0001  2.0001 sum   4.0002
    2    C  MulP   1.9999  1.9999 sum   3.9998
    3    C  MulP   2.0001  2.0001 sum   4.0002
    4    C  MulP   1.9999  1.9999 sum   3.9997
    5    C  MulP   2.0001  2.0001 sum   4.0002
    6    C  MulP   1.9999  1.9999 sum   3.9997
    7    C  MulP   2.0001  2.0001 sum   4.0002
    8    C  MulP   1.9999  1.9999 sum   3.9997
    9    C  MulP   2.0001  2.0001 sum   4.0002
   10    C  MulP   2.0001  2.0001 sum   4.0003
   11    C  MulP   2.0002  2.0002 sum   4.0003
   12    C  MulP   2.0001  2.0001 sum   4.0003
   13    C  MulP   2.0001  2.0001 sum   4.0002
   14    C  MulP   2.0001  2.0001 sum   4.0001
   15    C  MulP   2.0001  2.0001 sum   4.0001
   16    C  MulP   2.0001  2.0001 sum   4.0001
   17    C  MulP   2.0001  2.0001 sum   4.0002
   18    C  MulP   1.9999  1.9999 sum   3.9997
   19    C  MulP   2.0008  2.0008 sum   4.0016
   20    C  MulP   2.0006  2.0006 sum   4.0012
     ..........
     ......

 Sum of MulP: up   =   264.00000 down          =   264.00000
              total=   528.00000 ideal(neutral)=   528.00000
<DFT>  Total Spin Moment (muB) =  0.000000000000
<DFT>  Mixing_weight= 0.030000000000
<DFT>  Uele   = -254.515481827409  dUele     =   0.001434589809
<DFT>  NormRD =    0.000034668514  Criterion =   0.000000010000

******************* MD= 1  SCF=25 *******************
<Poisson>  Poisson's equation using FFT...
<Set_Hamiltonian>  Hamiltonian matrix for VNA+dVH+Vxc...
<Band>  Solving the eigenvalue problem...
 KGrids1:  -0.43750  -0.31250  -0.18750  -0.06250   0.06250   0.18750   0.31250   0.43750 
 KGrids2:  -0.43750  -0.31250  -0.18750  -0.06250   0.06250   0.18750   0.31250   0.43750 
 KGrids3:   0.00000 
<Band_DFT>  Eigen, time=13.693399
<Band_DFT>  DM, time=0.000000
    1    C  MulP   2.0001  2.0001 sum   4.0002
    2    C  MulP   1.9999  1.9999 sum   3.9998
    3    C  MulP   2.0001  2.0001 sum   4.0002
    4    C  MulP   1.9999  1.9999 sum   3.9997
    5    C  MulP   2.0001  2.0001 sum   4.0002
    6    C  MulP   1.9999  1.9999 sum   3.9997
    7    C  MulP   2.0001  2.0001 sum   4.0002
    8    C  MulP   1.9999  1.9999 sum   3.9997
    9    C  MulP   2.0001  2.0001 sum   4.0002
   10    C  MulP   2.0001  2.0001 sum   4.0003
   11    C  MulP   2.0002  2.0002 sum   4.0003
   12    C  MulP   2.0001  2.0001 sum   4.0003
   13    C  MulP   2.0001  2.0001 sum   4.0002
   14    C  MulP   2.0001  2.0001 sum   4.0001
   15    C  MulP   2.0001  2.0001 sum   4.0001
   16    C  MulP   2.0001  2.0001 sum   4.0001
   17    C  MulP   2.0001  2.0001 sum   4.0002
   18    C  MulP   1.9999  1.9999 sum   3.9997
   19    C  MulP   2.0008  2.0008 sum   4.0016
   20    C  MulP   2.0006  2.0006 sum   4.0012
     ..........
     ......

 Sum of MulP: up   =   264.00000 down          =   264.00000
              total=   528.00000 ideal(neutral)=   528.00000
<DFT>  Total Spin Moment (muB) =  0.000000000000
<DFT>  Mixing_weight= 0.030000000000
<DFT>  Uele   = -254.515968242979  dUele     =   0.000486415570
<DFT>  NormRD =    0.000010926536  Criterion =   0.000000010000

******************* MD= 1  SCF=26 *******************
<Poisson>  Poisson's equation using FFT...
<Set_Hamiltonian>  Hamiltonian matrix for VNA+dVH+Vxc...
<Band>  Solving the eigenvalue problem...
 KGrids1:  -0.43750  -0.31250  -0.18750  -0.06250   0.06250   0.18750   0.31250   0.43750 
 KGrids2:  -0.43750  -0.31250  -0.18750  -0.06250   0.06250   0.18750   0.31250   0.43750 
 KGrids3:   0.00000 
<Band_DFT>  Eigen, time=13.698145
<Band_DFT>  DM, time=0.000000
    1    C  MulP   2.0001  2.0001 sum   4.0002
    2    C  MulP   1.9999  1.9999 sum   3.9998
    3    C  MulP   2.0001  2.0001 sum   4.0002
    4    C  MulP   1.9999  1.9999 sum   3.9997
    5    C  MulP   2.0001  2.0001 sum   4.0002
    6    C  MulP   1.9999  1.9999 sum   3.9997
    7    C  MulP   2.0001  2.0001 sum   4.0002
    8    C  MulP   1.9999  1.9999 sum   3.9997
    9    C  MulP   2.0001  2.0001 sum   4.0002
   10    C  MulP   2.0001  2.0001 sum   4.0003
   11    C  MulP   2.0002  2.0002 sum   4.0003
   12    C  MulP   2.0001  2.0001 sum   4.0003
   13    C  MulP   2.0001  2.0001 sum   4.0002
   14    C  MulP   2.0001  2.0001 sum   4.0001
   15    C  MulP   2.0001  2.0001 sum   4.0001
   16    C  MulP   2.0001  2.0001 sum   4.0001
   17    C  MulP   2.0001  2.0001 sum   4.0002
   18    C  MulP   1.9999  1.9999 sum   3.9997
   19    C  MulP   2.0008  2.0008 sum   4.0016
   20    C  MulP   2.0006  2.0006 sum   4.0012
     ..........
     ......

 Sum of MulP: up   =   264.00000 down          =   264.00000
              total=   528.00000 ideal(neutral)=   528.00000
<DFT>  Total Spin Moment (muB) =  0.000000000000
<DFT>  Mixing_weight= 0.030000000000
<DFT>  Uele   = -254.516169509802  dUele     =   0.000201266823
<DFT>  NormRD =    0.000007350769  Criterion =   0.000000010000

******************* MD= 1  SCF=27 *******************
<Poisson>  Poisson's equation using FFT...
<Set_Hamiltonian>  Hamiltonian matrix for VNA+dVH+Vxc...
<Band>  Solving the eigenvalue problem...
 KGrids1:  -0.43750  -0.31250  -0.18750  -0.06250   0.06250   0.18750   0.31250   0.43750 
 KGrids2:  -0.43750  -0.31250  -0.18750  -0.06250   0.06250   0.18750   0.31250   0.43750 
 KGrids3:   0.00000 
<Band_DFT>  Eigen, time=13.682231
<Band_DFT>  DM, time=0.000001
    1    C  MulP   2.0001  2.0001 sum   4.0002
    2    C  MulP   1.9999  1.9999 sum   3.9998
    3    C  MulP   2.0001  2.0001 sum   4.0002
    4    C  MulP   1.9999  1.9999 sum   3.9997
    5    C  MulP   2.0001  2.0001 sum   4.0002
    6    C  MulP   1.9999  1.9999 sum   3.9997
    7    C  MulP   2.0001  2.0001 sum   4.0002
    8    C  MulP   1.9999  1.9999 sum   3.9997
    9    C  MulP   2.0001  2.0001 sum   4.0002
   10    C  MulP   2.0001  2.0001 sum   4.0003
   11    C  MulP   2.0002  2.0002 sum   4.0003
   12    C  MulP   2.0001  2.0001 sum   4.0003
   13    C  MulP   2.0001  2.0001 sum   4.0002
   14    C  MulP   2.0001  2.0001 sum   4.0001
   15    C  MulP   2.0001  2.0001 sum   4.0001
   16    C  MulP   2.0001  2.0001 sum   4.0001
   17    C  MulP   2.0001  2.0001 sum   4.0002
   18    C  MulP   1.9999  1.9999 sum   3.9997
   19    C  MulP   2.0008  2.0008 sum   4.0016
   20    C  MulP   2.0006  2.0006 sum   4.0012
     ..........
     ......

 Sum of MulP: up   =   264.00000 down          =   264.00000
              total=   528.00000 ideal(neutral)=   528.00000
<DFT>  Total Spin Moment (muB) =  0.000000000000
<DFT>  Mixing_weight= 0.030000000000
<DFT>  Uele   = -254.516347915468  dUele     =   0.000178405666
<DFT>  NormRD =    0.000003702980  Criterion =   0.000000010000

******************* MD= 1  SCF=28 *******************
<Poisson>  Poisson's equation using FFT...
<Set_Hamiltonian>  Hamiltonian matrix for VNA+dVH+Vxc...
<Band>  Solving the eigenvalue problem...
 KGrids1:  -0.43750  -0.31250  -0.18750  -0.06250   0.06250   0.18750   0.31250   0.43750 
 KGrids2:  -0.43750  -0.31250  -0.18750  -0.06250   0.06250   0.18750   0.31250   0.43750 
 KGrids3:   0.00000 
<Band_DFT>  Eigen, time=13.706168
<Band_DFT>  DM, time=0.000000
    1    C  MulP   2.0001  2.0001 sum   4.0002
    2    C  MulP   1.9999  1.9999 sum   3.9998
    3    C  MulP   2.0001  2.0001 sum   4.0002
    4    C  MulP   1.9999  1.9999 sum   3.9997
    5    C  MulP   2.0001  2.0001 sum   4.0002
    6    C  MulP   1.9999  1.9999 sum   3.9997
    7    C  MulP   2.0001  2.0001 sum   4.0002
    8    C  MulP   1.9999  1.9999 sum   3.9997
    9    C  MulP   2.0001  2.0001 sum   4.0002
   10    C  MulP   2.0001  2.0001 sum   4.0003
   11    C  MulP   2.0002  2.0002 sum   4.0003
   12    C  MulP   2.0001  2.0001 sum   4.0003
   13    C  MulP   2.0001  2.0001 sum   4.0002
   14    C  MulP   2.0001  2.0001 sum   4.0001
   15    C  MulP   2.0001  2.0001 sum   4.0001
   16    C  MulP   2.0001  2.0001 sum   4.0001
   17    C  MulP   2.0001  2.0001 sum   4.0002
   18    C  MulP   1.9999  1.9999 sum   3.9997
   19    C  MulP   2.0008  2.0008 sum   4.0016
   20    C  MulP   2.0006  2.0006 sum   4.0012
     ..........
     ......

 Sum of MulP: up   =   264.00000 down          =   264.00000
              total=   528.00000 ideal(neutral)=   528.00000
<DFT>  Total Spin Moment (muB) =  0.000000000000
<DFT>  Mixing_weight= 0.030000000000
<DFT>  Uele   = -254.516446053750  dUele     =   0.000098138282
<DFT>  NormRD =    0.000001687799  Criterion =   0.000000010000

******************* MD= 1  SCF=29 *******************
<Poisson>  Poisson's equation using FFT...
<Set_Hamiltonian>  Hamiltonian matrix for VNA+dVH+Vxc...
<Band>  Solving the eigenvalue problem...
 KGrids1:  -0.43750  -0.31250  -0.18750  -0.06250   0.06250   0.18750   0.31250   0.43750 
 KGrids2:  -0.43750  -0.31250  -0.18750  -0.06250   0.06250   0.18750   0.31250   0.43750 
 KGrids3:   0.00000 
<Band_DFT>  Eigen, time=13.687634
<Band_DFT>  DM, time=0.000000
    1    C  MulP   2.0001  2.0001 sum   4.0002
    2    C  MulP   1.9999  1.9999 sum   3.9998
    3    C  MulP   2.0001  2.0001 sum   4.0002
    4    C  MulP   1.9999  1.9999 sum   3.9997
    5    C  MulP   2.0001  2.0001 sum   4.0002
    6    C  MulP   1.9999  1.9999 sum   3.9997
    7    C  MulP   2.0001  2.0001 sum   4.0002
    8    C  MulP   1.9999  1.9999 sum   3.9997
    9    C  MulP   2.0001  2.0001 sum   4.0002
   10    C  MulP   2.0001  2.0001 sum   4.0003
   11    C  MulP   2.0002  2.0002 sum   4.0003
   12    C  MulP   2.0001  2.0001 sum   4.0003
   13    C  MulP   2.0001  2.0001 sum   4.0002
   14    C  MulP   2.0001  2.0001 sum   4.0001
   15    C  MulP   2.0001  2.0001 sum   4.0001
   16    C  MulP   2.0001  2.0001 sum   4.0001
   17    C  MulP   2.0001  2.0001 sum   4.0002
   18    C  MulP   1.9999  1.9999 sum   3.9997
   19    C  MulP   2.0008  2.0008 sum   4.0016
   20    C  MulP   2.0006  2.0006 sum   4.0012
     ..........
     ......

 Sum of MulP: up   =   264.00000 down          =   264.00000
              total=   528.00000 ideal(neutral)=   528.00000
<DFT>  Total Spin Moment (muB) =  0.000000000000
<DFT>  Mixing_weight= 0.030000000000
<DFT>  Uele   = -254.516480953835  dUele     =   0.000034900085
<DFT>  NormRD =    0.000000926924  Criterion =   0.000000010000

******************* MD= 1  SCF=30 *******************
<Poisson>  Poisson's equation using FFT...
<Set_Hamiltonian>  Hamiltonian matrix for VNA+dVH+Vxc...
<Band>  Solving the eigenvalue problem...
 KGrids1:  -0.43750  -0.31250  -0.18750  -0.06250   0.06250   0.18750   0.31250   0.43750 
 KGrids2:  -0.43750  -0.31250  -0.18750  -0.06250   0.06250   0.18750   0.31250   0.43750 
 KGrids3:   0.00000 
<Band_DFT>  Eigen, time=13.684984
<Band_DFT>  DM, time=0.000000
    1    C  MulP   2.0001  2.0001 sum   4.0002
    2    C  MulP   1.9999  1.9999 sum   3.9998
    3    C  MulP   2.0001  2.0001 sum   4.0002
    4    C  MulP   1.9999  1.9999 sum   3.9997
    5    C  MulP   2.0001  2.0001 sum   4.0002
    6    C  MulP   1.9999  1.9999 sum   3.9997
    7    C  MulP   2.0001  2.0001 sum   4.0002
    8    C  MulP   1.9999  1.9999 sum   3.9997
    9    C  MulP   2.0001  2.0001 sum   4.0002
   10    C  MulP   2.0001  2.0001 sum   4.0003
   11    C  MulP   2.0002  2.0002 sum   4.0003
   12    C  MulP   2.0001  2.0001 sum   4.0003
   13    C  MulP   2.0001  2.0001 sum   4.0002
   14    C  MulP   2.0001  2.0001 sum   4.0001
   15    C  MulP   2.0001  2.0001 sum   4.0001
   16    C  MulP   2.0001  2.0001 sum   4.0001
   17    C  MulP   2.0001  2.0001 sum   4.0002
   18    C  MulP   1.9999  1.9999 sum   3.9997
   19    C  MulP   2.0008  2.0008 sum   4.0016
   20    C  MulP   2.0006  2.0006 sum   4.0012
     ..........
     ......

 Sum of MulP: up   =   264.00000 down          =   264.00000
              total=   528.00000 ideal(neutral)=   528.00000
<DFT>  Total Spin Moment (muB) =  0.000000000000
<DFT>  Mixing_weight= 0.030000000000
<DFT>  Uele   = -254.516510721028  dUele     =   0.000029767193
<DFT>  NormRD =    0.000000514298  Criterion =   0.000000010000

******************* MD= 1  SCF=31 *******************
<Poisson>  Poisson's equation using FFT...
<Set_Hamiltonian>  Hamiltonian matrix for VNA+dVH+Vxc...
<Band>  Solving the eigenvalue problem...
 KGrids1:  -0.43750  -0.31250  -0.18750  -0.06250   0.06250   0.18750   0.31250   0.43750 
 KGrids2:  -0.43750  -0.31250  -0.18750  -0.06250   0.06250   0.18750   0.31250   0.43750 
 KGrids3:   0.00000 
<Band_DFT>  Eigen, time=13.695967
<Band_DFT>  DM, time=0.000001
    1    C  MulP   2.0001  2.0001 sum   4.0002
    2    C  MulP   1.9999  1.9999 sum   3.9998
    3    C  MulP   2.0001  2.0001 sum   4.0002
    4    C  MulP   1.9999  1.9999 sum   3.9997
    5    C  MulP   2.0001  2.0001 sum   4.0002
    6    C  MulP   1.9999  1.9999 sum   3.9997
    7    C  MulP   2.0001  2.0001 sum   4.0002
    8    C  MulP   1.9999  1.9999 sum   3.9997
    9    C  MulP   2.0001  2.0001 sum   4.0002
   10    C  MulP   2.0001  2.0001 sum   4.0003
   11    C  MulP   2.0002  2.0002 sum   4.0003
   12    C  MulP   2.0001  2.0001 sum   4.0003
   13    C  MulP   2.0001  2.0001 sum   4.0002
   14    C  MulP   2.0001  2.0001 sum   4.0001
   15    C  MulP   2.0001  2.0001 sum   4.0001
   16    C  MulP   2.0001  2.0001 sum   4.0001
   17    C  MulP   2.0001  2.0001 sum   4.0002
   18    C  MulP   1.9999  1.9999 sum   3.9997
   19    C  MulP   2.0008  2.0008 sum   4.0016
   20    C  MulP   2.0006  2.0006 sum   4.0012
     ..........
     ......

 Sum of MulP: up   =   264.00000 down          =   264.00000
              total=   528.00000 ideal(neutral)=   528.00000
<DFT>  Total Spin Moment (muB) =  0.000000000000
<DFT>  Mixing_weight= 0.030000000000
<DFT>  Uele   = -254.516538698359  dUele     =   0.000027977331
<DFT>  NormRD =    0.000000125139  Criterion =   0.000000010000

******************* MD= 1  SCF=32 *******************
<Poisson>  Poisson's equation using FFT...
<Set_Hamiltonian>  Hamiltonian matrix for VNA+dVH+Vxc...
<Band>  Solving the eigenvalue problem...
 KGrids1:  -0.43750  -0.31250  -0.18750  -0.06250   0.06250   0.18750   0.31250   0.43750 
 KGrids2:  -0.43750  -0.31250  -0.18750  -0.06250   0.06250   0.18750   0.31250   0.43750 
 KGrids3:   0.00000 
<Band_DFT>  Eigen, time=13.708459
<Band_DFT>  DM, time=0.000000
    1    C  MulP   2.0001  2.0001 sum   4.0002
    2    C  MulP   1.9999  1.9999 sum   3.9998
    3    C  MulP   2.0001  2.0001 sum   4.0002
    4    C  MulP   1.9999  1.9999 sum   3.9997
    5    C  MulP   2.0001  2.0001 sum   4.0002
    6    C  MulP   1.9999  1.9999 sum   3.9997
    7    C  MulP   2.0001  2.0001 sum   4.0002
    8    C  MulP   1.9999  1.9999 sum   3.9997
    9    C  MulP   2.0001  2.0001 sum   4.0002
   10    C  MulP   2.0001  2.0001 sum   4.0003
   11    C  MulP   2.0002  2.0002 sum   4.0003
   12    C  MulP   2.0001  2.0001 sum   4.0003
   13    C  MulP   2.0001  2.0001 sum   4.0002
   14    C  MulP   2.0001  2.0001 sum   4.0001
   15    C  MulP   2.0001  2.0001 sum   4.0001
   16    C  MulP   2.0001  2.0001 sum   4.0001
   17    C  MulP   2.0001  2.0001 sum   4.0002
   18    C  MulP   1.9999  1.9999 sum   3.9997
   19    C  MulP   2.0008  2.0008 sum   4.0016
   20    C  MulP   2.0006  2.0006 sum   4.0012
     ..........
     ......

 Sum of MulP: up   =   264.00000 down          =   264.00000
              total=   528.00000 ideal(neutral)=   528.00000
<DFT>  Total Spin Moment (muB) =  0.000000000000
<DFT>  Mixing_weight= 0.030000000000
<DFT>  Uele   = -254.516545286388  dUele     =   0.000006588029
<DFT>  NormRD =    0.000000038287  Criterion =   0.000000010000

******************* MD= 1  SCF=33 *******************
<Poisson>  Poisson's equation using FFT...
<Set_Hamiltonian>  Hamiltonian matrix for VNA+dVH+Vxc...
<Band>  Solving the eigenvalue problem...
 KGrids1:  -0.43750  -0.31250  -0.18750  -0.06250   0.06250   0.18750   0.31250   0.43750 
 KGrids2:  -0.43750  -0.31250  -0.18750  -0.06250   0.06250   0.18750   0.31250   0.43750 
 KGrids3:   0.00000 
<Band_DFT>  Eigen, time=13.687075
<Band_DFT>  DM, time=0.000000
    1    C  MulP   2.0001  2.0001 sum   4.0002
    2    C  MulP   1.9999  1.9999 sum   3.9998
    3    C  MulP   2.0001  2.0001 sum   4.0002
    4    C  MulP   1.9999  1.9999 sum   3.9997
    5    C  MulP   2.0001  2.0001 sum   4.0002
    6    C  MulP   1.9999  1.9999 sum   3.9997
    7    C  MulP   2.0001  2.0001 sum   4.0002
    8    C  MulP   1.9999  1.9999 sum   3.9997
    9    C  MulP   2.0001  2.0001 sum   4.0002
   10    C  MulP   2.0001  2.0001 sum   4.0003
   11    C  MulP   2.0002  2.0002 sum   4.0003
   12    C  MulP   2.0001  2.0001 sum   4.0003
   13    C  MulP   2.0001  2.0001 sum   4.0002
   14    C  MulP   2.0001  2.0001 sum   4.0001
   15    C  MulP   2.0001  2.0001 sum   4.0001
   16    C  MulP   2.0001  2.0001 sum   4.0001
   17    C  MulP   2.0001  2.0001 sum   4.0002
   18    C  MulP   1.9999  1.9999 sum   3.9997
   19    C  MulP   2.0008  2.0008 sum   4.0016
   20    C  MulP   2.0006  2.0006 sum   4.0012
     ..........
     ......

 Sum of MulP: up   =   264.00000 down          =   264.00000
              total=   528.00000 ideal(neutral)=   528.00000
<DFT>  Total Spin Moment (muB) =  0.000000000000
<DFT>  Mixing_weight= 0.030000000000
<DFT>  Uele   = -254.516547248820  dUele     =   0.000001962432
<DFT>  NormRD =    0.000000007936  Criterion =   0.000000010000

******************* MD= 1  SCF=34 *******************
<Poisson>  Poisson's equation using FFT...
<Set_Hamiltonian>  Hamiltonian matrix for VNA+dVH+Vxc...
<Band>  Solving the eigenvalue problem...
 KGrids1:  -0.43750  -0.31250  -0.18750  -0.06250   0.06250   0.18750   0.31250   0.43750 
 KGrids2:  -0.43750  -0.31250  -0.18750  -0.06250   0.06250   0.18750   0.31250   0.43750 
 KGrids3:   0.00000 
<Band_DFT>  Eigen, time=13.701897
<Band_DFT>  DM, time=0.000000
    1    C  MulP   2.0001  2.0001 sum   4.0002
    2    C  MulP   1.9999  1.9999 sum   3.9998
    3    C  MulP   2.0001  2.0001 sum   4.0002
    4    C  MulP   1.9999  1.9999 sum   3.9997
    5    C  MulP   2.0001  2.0001 sum   4.0002
    6    C  MulP   1.9999  1.9999 sum   3.9997
    7    C  MulP   2.0001  2.0001 sum   4.0002
    8    C  MulP   1.9999  1.9999 sum   3.9997
    9    C  MulP   2.0001  2.0001 sum   4.0002
   10    C  MulP   2.0001  2.0001 sum   4.0003
   11    C  MulP   2.0002  2.0002 sum   4.0003
   12    C  MulP   2.0001  2.0001 sum   4.0003
   13    C  MulP   2.0001  2.0001 sum   4.0002
   14    C  MulP   2.0001  2.0001 sum   4.0001
   15    C  MulP   2.0001  2.0001 sum   4.0001
   16    C  MulP   2.0001  2.0001 sum   4.0001
   17    C  MulP   2.0001  2.0001 sum   4.0002
   18    C  MulP   1.9999  1.9999 sum   3.9997
   19    C  MulP   2.0008  2.0008 sum   4.0016
   20    C  MulP   2.0006  2.0006 sum   4.0012
     ..........
     ......

 Sum of MulP: up   =   264.00000 down          =   264.00000
              total=   528.00000 ideal(neutral)=   528.00000
<DFT>  Total Spin Moment (muB) =  0.000000000000
<DFT>  Mixing_weight= 0.030000000000
<DFT>  Uele   = -254.516547631161  dUele     =   0.000000382341
<DFT>  NormRD =    0.000000005254  Criterion =   0.000000010000

******************* MD= 1  SCF=35 *******************
<Poisson>  Poisson's equation using FFT...
<Set_Hamiltonian>  Hamiltonian matrix for VNA+dVH+Vxc...
<Band>  Solving the eigenvalue problem...
 KGrids1:  -0.43750  -0.31250  -0.18750  -0.06250   0.06250   0.18750   0.31250   0.43750 
 KGrids2:  -0.43750  -0.31250  -0.18750  -0.06250   0.06250   0.18750   0.31250   0.43750 
 KGrids3:   0.00000 
<Band_DFT>  Eigen, time=13.688457
<Band_DFT>  DM, time=0.000000
    1    C  MulP   2.0001  2.0001 sum   4.0002
    2    C  MulP   1.9999  1.9999 sum   3.9998
    3    C  MulP   2.0001  2.0001 sum   4.0002
    4    C  MulP   1.9999  1.9999 sum   3.9997
    5    C  MulP   2.0001  2.0001 sum   4.0002
    6    C  MulP   1.9999  1.9999 sum   3.9997
    7    C  MulP   2.0001  2.0001 sum   4.0002
    8    C  MulP   1.9999  1.9999 sum   3.9997
    9    C  MulP   2.0001  2.0001 sum   4.0002
   10    C  MulP   2.0001  2.0001 sum   4.0003
   11    C  MulP   2.0002  2.0002 sum   4.0003
   12    C  MulP   2.0001  2.0001 sum   4.0003
   13    C  MulP   2.0001  2.0001 sum   4.0002
   14    C  MulP   2.0001  2.0001 sum   4.0001
   15    C  MulP   2.0001  2.0001 sum   4.0001
   16    C  MulP   2.0001  2.0001 sum   4.0001
   17    C  MulP   2.0001  2.0001 sum   4.0002
   18    C  MulP   1.9999  1.9999 sum   3.9997
   19    C  MulP   2.0008  2.0008 sum   4.0016
   20    C  MulP   2.0006  2.0006 sum   4.0012
     ..........
     ......

 Sum of MulP: up   =   264.00000 down          =   264.00000
              total=   528.00000 ideal(neutral)=   528.00000
<DFT>  Total Spin Moment (muB) =  0.000000000000
<DFT>  Mixing_weight= 0.030000000000
<DFT>  Uele   = -254.516547690361  dUele     =   0.000000059200
<DFT>  NormRD =    0.000000000980  Criterion =   0.000000010000

******************* MD= 1  SCF=36 *******************
<Poisson>  Poisson's equation using FFT...
<Set_Hamiltonian>  Hamiltonian matrix for VNA+dVH+Vxc...
<Band>  Solving the eigenvalue problem...
 KGrids1:  -0.43750  -0.31250  -0.18750  -0.06250   0.06250   0.18750   0.31250   0.43750 
 KGrids2:  -0.43750  -0.31250  -0.18750  -0.06250   0.06250   0.18750   0.31250   0.43750 
 KGrids3:   0.00000 
<Band_DFT>  Eigen, time=13.723557
<Band_DFT>  DM, time=0.000000
    1    C  MulP   2.0001  2.0001 sum   4.0002
    2    C  MulP   1.9999  1.9999 sum   3.9998
    3    C  MulP   2.0001  2.0001 sum   4.0002
    4    C  MulP   1.9999  1.9999 sum   3.9997
    5    C  MulP   2.0001  2.0001 sum   4.0002
    6    C  MulP   1.9999  1.9999 sum   3.9997
    7    C  MulP   2.0001  2.0001 sum   4.0002
    8    C  MulP   1.9999  1.9999 sum   3.9997
    9    C  MulP   2.0001  2.0001 sum   4.0002
   10    C  MulP   2.0001  2.0001 sum   4.0003
   11    C  MulP   2.0002  2.0002 sum   4.0003
   12    C  MulP   2.0001  2.0001 sum   4.0003
   13    C  MulP   2.0001  2.0001 sum   4.0002
   14    C  MulP   2.0001  2.0001 sum   4.0001
   15    C  MulP   2.0001  2.0001 sum   4.0001
   16    C  MulP   2.0001  2.0001 sum   4.0001
   17    C  MulP   2.0001  2.0001 sum   4.0002
   18    C  MulP   1.9999  1.9999 sum   3.9997
   19    C  MulP   2.0008  2.0008 sum   4.0016
   20    C  MulP   2.0006  2.0006 sum   4.0012
     ..........
     ......

 Sum of MulP: up   =   264.00000 down          =   264.00000
              total=   528.00000 ideal(neutral)=   528.00000
<DFT>  Total Spin Moment (muB) =  0.000000000000
<DFT>  Mixing_weight= 0.030000000000
<DFT>  Uele   = -254.516547675049  dUele     =   0.000000015313
<DFT>  NormRD =    0.000000000483  Criterion =   0.000000010000

******************* MD= 1  SCF=37 *******************
<Poisson>  Poisson's equation using FFT...
<Set_Hamiltonian>  Hamiltonian matrix for VNA+dVH+Vxc...
<Band>  Solving the eigenvalue problem...
 KGrids1:  -0.43750  -0.31250  -0.18750  -0.06250   0.06250   0.18750   0.31250   0.43750 
 KGrids2:  -0.43750  -0.31250  -0.18750  -0.06250   0.06250   0.18750   0.31250   0.43750 
 KGrids3:   0.00000 
<Band_DFT>  Eigen, time=13.696757
<Band_DFT>  DM, time=0.000000
    1    C  MulP   2.0001  2.0001 sum   4.0002
    2    C  MulP   1.9999  1.9999 sum   3.9998
    3    C  MulP   2.0001  2.0001 sum   4.0002
    4    C  MulP   1.9999  1.9999 sum   3.9997
    5    C  MulP   2.0001  2.0001 sum   4.0002
    6    C  MulP   1.9999  1.9999 sum   3.9997
    7    C  MulP   2.0001  2.0001 sum   4.0002
    8    C  MulP   1.9999  1.9999 sum   3.9997
    9    C  MulP   2.0001  2.0001 sum   4.0002
   10    C  MulP   2.0001  2.0001 sum   4.0003
   11    C  MulP   2.0002  2.0002 sum   4.0003
   12    C  MulP   2.0001  2.0001 sum   4.0003
   13    C  MulP   2.0001  2.0001 sum   4.0002
   14    C  MulP   2.0001  2.0001 sum   4.0001
   15    C  MulP   2.0001  2.0001 sum   4.0001
   16    C  MulP   2.0001  2.0001 sum   4.0001
   17    C  MulP   2.0001  2.0001 sum   4.0002
   18    C  MulP   1.9999  1.9999 sum   3.9997
   19    C  MulP   2.0008  2.0008 sum   4.0016
   20    C  MulP   2.0006  2.0006 sum   4.0012
     ..........
     ......

 Sum of MulP: up   =   264.00000 down          =   264.00000
              total=   528.00000 ideal(neutral)=   528.00000
<DFT>  Total Spin Moment (muB) =  0.000000000000
<DFT>  Mixing_weight= 0.030000000000
<DFT>  Uele   = -254.516547656859  dUele     =   0.000000018190
<DFT>  NormRD =    0.000000000166  Criterion =   0.000000010000

******************* MD= 1  SCF=38 *******************
<Poisson>  Poisson's equation using FFT...
<Set_Hamiltonian>  Hamiltonian matrix for VNA+dVH+Vxc...
<Band>  Solving the eigenvalue problem...
 KGrids1:  -0.43750  -0.31250  -0.18750  -0.06250   0.06250   0.18750   0.31250   0.43750 
 KGrids2:  -0.43750  -0.31250  -0.18750  -0.06250   0.06250   0.18750   0.31250   0.43750 
 KGrids3:   0.00000 
<Band_DFT>  Eigen, time=13.697496
<Band_DFT>  DM, time=0.000000
    1    C  MulP   2.0001  2.0001 sum   4.0002
    2    C  MulP   1.9999  1.9999 sum   3.9998
    3    C  MulP   2.0001  2.0001 sum   4.0002
    4    C  MulP   1.9999  1.9999 sum   3.9997
    5    C  MulP   2.0001  2.0001 sum   4.0002
    6    C  MulP   1.9999  1.9999 sum   3.9997
    7    C  MulP   2.0001  2.0001 sum   4.0002
    8    C  MulP   1.9999  1.9999 sum   3.9997
    9    C  MulP   2.0001  2.0001 sum   4.0002
   10    C  MulP   2.0001  2.0001 sum   4.0003
   11    C  MulP   2.0002  2.0002 sum   4.0003
   12    C  MulP   2.0001  2.0001 sum   4.0003
   13    C  MulP   2.0001  2.0001 sum   4.0002
   14    C  MulP   2.0001  2.0001 sum   4.0001
   15    C  MulP   2.0001  2.0001 sum   4.0001
   16    C  MulP   2.0001  2.0001 sum   4.0001
   17    C  MulP   2.0001  2.0001 sum   4.0002
   18    C  MulP   1.9999  1.9999 sum   3.9997
   19    C  MulP   2.0008  2.0008 sum   4.0016
   20    C  MulP   2.0006  2.0006 sum   4.0012
     ..........
     ......

[...]
<DFT>  NormRD =    0.000000037629  Criterion =   0.000000010000

******************* MD=16  SCF=15 *******************
<Poisson>  Poisson's equation using FFT...
<Set_Hamiltonian>  Hamiltonian matrix for VNA+dVH+Vxc...
<Band>  Solving the eigenvalue problem...
 KGrids1:  -0.43750  -0.31250  -0.18750  -0.06250   0.06250   0.18750   0.31250   0.43750 
 KGrids2:  -0.43750  -0.31250  -0.18750  -0.06250   0.06250   0.18750   0.31250   0.43750 
 KGrids3:   0.00000 
<Band_DFT>  Eigen, time=13.989678
<Band_DFT>  DM, time=0.000000
    1    C  MulP   2.0001  2.0001 sum   4.0002
    2    C  MulP   1.9999  1.9999 sum   3.9998
    3    C  MulP   2.0001  2.0001 sum   4.0002
    4    C  MulP   1.9999  1.9999 sum   3.9997
    5    C  MulP   2.0001  2.0001 sum   4.0001
    6    C  MulP   1.9999  1.9999 sum   3.9997
    7    C  MulP   2.0001  2.0001 sum   4.0001
    8    C  MulP   1.9999  1.9999 sum   3.9997
    9    C  MulP   2.0001  2.0001 sum   4.0002
   10    C  MulP   2.0001  2.0001 sum   4.0002
   11    C  MulP   2.0001  2.0001 sum   4.0003
   12    C  MulP   2.0001  2.0001 sum   4.0002
   13    C  MulP   2.0001  2.0001 sum   4.0002
   14    C  MulP   2.0001  2.0001 sum   4.0001
   15    C  MulP   2.0001  2.0001 sum   4.0001
   16    C  MulP   2.0001  2.0001 sum   4.0001
   17    C  MulP   2.0001  2.0001 sum   4.0002
   18    C  MulP   1.9999  1.9999 sum   3.9997
   19    C  MulP   2.0008  2.0008 sum   4.0017
   20    C  MulP   2.0006  2.0006 sum   4.0012
     ..........
     ......

 Sum of MulP: up   =   264.00000 down          =   264.00000
              total=   528.00000 ideal(neutral)=   528.00000
<DFT>  Total Spin Moment (muB) =  0.000000000000
<DFT>  Mixing_weight= 0.030000000000
<DFT>  Uele   = -254.444103477130  dUele     =   0.000000000336
<DFT>  NormRD =    0.000000014741  Criterion =   0.000000010000
<MD=16>  Force calculation
  Force calculation #1
  Force calculation #2
  Force calculation #3
  Force calculation #4
  Force calculation #5
<MD=16>  Total Energy
  Force calculation #6
  Force calculation #7

*******************************************************
                  Dipole moment (Debye)                 
*******************************************************

 Absolute D        0.09323312

                      Dx                Dy                Dz
 Total             -0.00016795       -0.00029843       -0.09323249
 Core           12514.54194628    21675.82256062    26940.93999041
 Electron      -12514.54211423   -21675.82285904   -26941.03322290
 Back ground       -0.00000000       -0.00000000       -0.00000000

*******************************************************
                Total Energy (Hartree) at MD =16        
*******************************************************

  Uele  =    -254.444103477130

  Ukin  =     560.970561177798
  UH0   =   -7571.428805142210
  UH1   =       1.875354842095
  Una   =    -406.122130490095
  Unl   =     -62.819468005263
  Uxc0  =    -128.806132559448
  Uxc1  =    -128.806132559448
  Ucore =    6948.837701683576
  Uhub  =       0.000000000000
  Ucs   =       0.000000000000
  Uzs   =       0.000000000000
  Uzo   =       0.000000000000
  Uef   =       0.000000000000
  UvdW  =       0.000000000000
  Uch   =       0.000000000000
  Utot  =    -786.299051052996

  UpV   =       0.000000000000
  Enpy  =    -786.299051052996
  Note:

  Uele:   band energy
  Ukin:   kinetic energy
  UH0:    electric part of screened Coulomb energy
  UH1:    difference electron-electron Coulomb energy
  Una:    neutral atom potential energy
  Unl:    non-local potential energy
  Uxc0:   exchange-correlation energy for alpha spin
  Uxc1:   exchange-correlation energy for beta spin
  Ucore:  core-core Coulomb energy
  Uhub:   LDA+U energy
  Ucs:    constraint energy for spin orientation
  Uzs:    Zeeman term for spin magnetic moment
  Uzo:    Zeeman term for orbital magnetic moment
  Uef:    electric energy by electric field
  UvdW:   semi-empirical vdW energy 
  Uch:    penalty term to create a core hole
  UpV:    pressure times volume
  Enpy:   Enthalpy = Utot + UpV
  (see also PRB 72, 045121(2005) for the energy contributions)


*******************************************************
           Computational times (s) at MD =16            
*******************************************************

  DFT in total      =  256.00717

  Set_OLP_Kin       =    1.11799
  Set_Nonlocal      =    2.85250
  Set_ProExpn_VNA   =    4.64707
  Set_Hamiltonian   =   14.18982
  Poisson           =    0.17235
  diagonalization   =  219.42483
  Mixing_DM         =    1.53156
  Force             =    3.74335
  Total_Energy      =    1.24784
  Set_Aden_Grid     =    0.24711
  Set_Orbitals_Grid =    0.54291
  Set_Density_Grid  =    5.55023
  RestartFileDFT    =    0.27122
  Mulliken_Charge   =    0.01600
  FFT(2D)_Density   =    0.19060

The SCF was achieved at MD=  16

*******************************************************
             MD or geometry opt. at MD =16              
*******************************************************


The geometry optimization was achieved.
<RF>  |Maximum force| (Hartree/Bohr) = 0.000068349306
<RF>  Criterion       (Hartree/Bohr) = 0.000100000000

     atom=   1, XYZ(ang) Fxyz(a.u.)=  -0.0000    1.4245   10.4978    -0.0000   -0.0000   -0.0000
     atom=   2, XYZ(ang) Fxyz(a.u.)=  -1.2337    3.5612   10.4982    -0.0000   -0.0000    0.0000
     atom=   3, XYZ(ang) Fxyz(a.u.)=  -2.4673    5.6979   10.4982    -0.0000   -0.0000    0.0000
     atom=   4, XYZ(ang) Fxyz(a.u.)=  -3.7010    7.8346   10.4976    -0.0000   -0.0000   -0.0000
     atom=   5, XYZ(ang) Fxyz(a.u.)=  -4.9346    9.9714   10.4973     0.0000   -0.0000   -0.0000
     atom=   6, XYZ(ang) Fxyz(a.u.)=  -6.1683   12.1081   10.4972    -0.0000   -0.0000   -0.0000
     atom=   7, XYZ(ang) Fxyz(a.u.)=  -7.4019   14.2449   10.4974    -0.0000    0.0000    0.0000
     atom=   8, XYZ(ang) Fxyz(a.u.)=  -8.6356   16.3816   10.4973    -0.0000    0.0000   -0.0000
     atom=   9, XYZ(ang) Fxyz(a.u.)=   2.4672    1.4245   10.4984    -0.0000   -0.0000    0.0000
     atom=  10, XYZ(ang) Fxyz(a.u.)=   1.2336    3.5612   10.4990    -0.0000   -0.0000    0.0000
     atom=  11, XYZ(ang) Fxyz(a.u.)=  -0.0000    5.6979   10.4991    -0.0000   -0.0000    0.0000
     atom=  12, XYZ(ang) Fxyz(a.u.)=  -1.2336    7.8346   10.4992    -0.0000   -0.0000    0.0000
     atom=  13, XYZ(ang) Fxyz(a.u.)=  -2.4673    9.9714   10.4986    -0.0000   -0.0000    0.0000
     atom=  14, XYZ(ang) Fxyz(a.u.)=  -3.7010   12.1081   10.4974    -0.0000   -0.0000   -0.0000
     atom=  15, XYZ(ang) Fxyz(a.u.)=  -4.9346   14.2449   10.4967    -0.0000    0.0000   -0.0000
     atom=  16, XYZ(ang) Fxyz(a.u.)=  -6.1683   16.3816   10.4975    -0.0000    0.0000    0.0000
     atom=  17, XYZ(ang) Fxyz(a.u.)=   4.9345    1.4245   10.4987     0.0000   -0.0000    0.0000
     atom=  18, XYZ(ang) Fxyz(a.u.)=   3.7009    3.5613   10.4988    -0.0000   -0.0000    0.0000
     atom=  19, XYZ(ang) Fxyz(a.u.)=   2.4674    5.6981   10.4973    -0.0000   -0.0000   -0.0000
     atom=  20, XYZ(ang) Fxyz(a.u.)=   1.2338    7.8347   10.4975    -0.0000   -0.0000   -0.0000
     atom=  21, XYZ(ang) Fxyz(a.u.)=   0.0001    9.9714   10.4991    -0.0000    0.0000   -0.0000
     atom=  22, XYZ(ang) Fxyz(a.u.)=  -1.2337   12.1081   10.4990    -0.0000    0.0000    0.0000
     atom=  23, XYZ(ang) Fxyz(a.u.)=  -2.4673   14.2449   10.4974     0.0000    0.0000   -0.0000
     atom=  24, XYZ(ang) Fxyz(a.u.)=  -3.7010   16.3816   10.4973     0.0000    0.0000   -0.0000
     atom=  25, XYZ(ang) Fxyz(a.u.)=   7.4018    1.4245   10.4984     0.0000   -0.0000   -0.0000
     atom=  26, XYZ(ang) Fxyz(a.u.)=   6.1681    3.5613   10.4987     0.0000   -0.0000    0.0000
     atom=  27, XYZ(ang) Fxyz(a.u.)=   4.9345    5.6985   10.4949    -0.0000   -0.0000    0.0000
     atom=  28, XYZ(ang) Fxyz(a.u.)=   3.7012    7.8348   10.4899    -0.0000   -0.0000   -0.0000
     atom=  29, XYZ(ang) Fxyz(a.u.)=   2.4677    9.9711   10.4952    -0.0000    0.0000   -0.0000
     atom=  30, XYZ(ang) Fxyz(a.u.)=   1.2337   12.1080   10.4990    -0.0000    0.0000   -0.0000
     atom=  31, XYZ(ang) Fxyz(a.u.)=  -0.0000   14.2448   10.4986     0.0000    0.0000    0.0000
     atom=  32, XYZ(ang) Fxyz(a.u.)=  -1.2337   16.3816   10.4974     0.0000    0.0000   -0.0000
     atom=  33, XYZ(ang) Fxyz(a.u.)=   9.8691    1.4245   10.4978     0.0000   -0.0000   -0.0000
     atom=  34, XYZ(ang) Fxyz(a.u.)=   8.6354    3.5612   10.4993     0.0000   -0.0000    0.0000
     atom=  35, XYZ(ang) Fxyz(a.u.)=   7.4017    5.6981   10.4974     0.0000   -0.0000    0.0000
     atom=  36, XYZ(ang) Fxyz(a.u.)=   6.1679    7.8348   10.4902     0.0000   -0.0000    0.0001
     atom=  37, XYZ(ang) Fxyz(a.u.)=   4.9345    9.9710   10.4899    -0.0000    0.0000   -0.0000
     atom=  38, XYZ(ang) Fxyz(a.u.)=   3.7010   12.1079   10.4972    -0.0000    0.0000   -0.0000
     atom=  39, XYZ(ang) Fxyz(a.u.)=   2.4673   14.2448   10.4991    -0.0000    0.0000    0.0000
     atom=  40, XYZ(ang) Fxyz(a.u.)=   1.2336   16.3816   10.4978     0.0000    0.0000   -0.0000
     atom=  41, XYZ(ang) Fxyz(a.u.)=  12.3364    1.4245   10.4973     0.0000    0.0000   -0.0000
     atom=  42, XYZ(ang) Fxyz(a.u.)=  11.1027    3.5612   10.4984     0.0000   -0.0000    0.0000
     atom=  43, XYZ(ang) Fxyz(a.u.)=   9.8691    5.6979   10.4993     0.0000   -0.0000    0.0000
     atom=  44, XYZ(ang) Fxyz(a.u.)=   8.6352    7.8347   10.4976     0.0000   -0.0000    0.0000
     atom=  45, XYZ(ang) Fxyz(a.u.)=   7.4013    9.9711   10.4952     0.0000    0.0000    0.0000
     atom=  46, XYZ(ang) Fxyz(a.u.)=   6.1681   12.1079   10.4972    -0.0000    0.0000   -0.0000
     atom=  47, XYZ(ang) Fxyz(a.u.)=   4.9345   14.2448   10.4989     0.0000    0.0000    0.0000
     atom=  48, XYZ(ang) Fxyz(a.u.)=   3.7009   16.3816   10.4982    -0.0000    0.0000    0.0000
     atom=  49, XYZ(ang) Fxyz(a.u.)=  14.8037    1.4245   10.4970    -0.0000    0.0000   -0.0000
     atom=  50, XYZ(ang) Fxyz(a.u.)=  13.5700    3.5612   10.4970     0.0000   -0.0000   -0.0000
     atom=  51, XYZ(ang) Fxyz(a.u.)=  12.3364    5.6979   10.4984     0.0000   -0.0000    0.0000
     atom=  52, XYZ(ang) Fxyz(a.u.)=  11.1027    7.8346   10.4994     0.0000   -0.0000    0.0000
     atom=  53, XYZ(ang) Fxyz(a.u.)=   9.8690    9.9714   10.4991     0.0000    0.0000    0.0000
     atom=  54, XYZ(ang) Fxyz(a.u.)=   8.6354   12.1080   10.4990     0.0000    0.0000    0.0000
     atom=  55, XYZ(ang) Fxyz(a.u.)=   7.4018   14.2448   10.4990     0.0000    0.0000    0.0000
     atom=  56, XYZ(ang) Fxyz(a.u.)=   6.1682   16.3816   10.4983     0.0000    0.0000    0.0000
     atom=  57, XYZ(ang) Fxyz(a.u.)=  17.2710    1.4245   10.4972    -0.0000    0.0000   -0.0000
     atom=  58, XYZ(ang) Fxyz(a.u.)=  16.0373    3.5612   10.4970    -0.0000   -0.0000   -0.0000
     atom=  59, XYZ(ang) Fxyz(a.u.)=  14.8037    5.6979   10.4971     0.0000   -0.0000   -0.0000
     atom=  60, XYZ(ang) Fxyz(a.u.)=  13.5700    7.8346   10.4977     0.0000   -0.0000   -0.0000
     atom=  61, XYZ(ang) Fxyz(a.u.)=  12.3363    9.9714   10.4984     0.0000   -0.0000    0.0000
     atom=  62, XYZ(ang) Fxyz(a.u.)=  11.1027   12.1081   10.4987     0.0000    0.0000    0.0000
     atom=  63, XYZ(ang) Fxyz(a.u.)=   9.8691   14.2448   10.4984    -0.0000    0.0000   -0.0000
     atom=  64, XYZ(ang) Fxyz(a.u.)=   8.6354   16.3816   10.4977    -0.0000    0.0000   -0.0000
     atom=  65, XYZ(ang) Fxyz(a.u.)=   1.2337    0.7123   10.4977     0.0000   -0.0000   -0.0000
     atom=  66, XYZ(ang) Fxyz(a.u.)=   0.0001    2.8490   10.4984     0.0000   -0.0000   -0.0000
     atom=  67, XYZ(ang) Fxyz(a.u.)=  -1.2336    4.9858   10.4987    -0.0000    0.0000    0.0000
     atom=  68, XYZ(ang) Fxyz(a.u.)=  -2.4672    7.1225   10.4984    -0.0000    0.0000    0.0000
     atom=  69, XYZ(ang) Fxyz(a.u.)=  -3.7009    9.2592   10.4977    -0.0000    0.0000   -0.0000
     atom=  70, XYZ(ang) Fxyz(a.u.)=  -4.9345   11.3959   10.4971    -0.0000    0.0000   -0.0000
     atom=  71, XYZ(ang) Fxyz(a.u.)=  -6.1682   13.5327   10.4970     0.0000    0.0000   -0.0000
     atom=  72, XYZ(ang) Fxyz(a.u.)=  -7.4018   15.6694   10.4972     0.0000   -0.0000   -0.0000
     atom=  73, XYZ(ang) Fxyz(a.u.)=   3.7010    0.7123   10.4983    -0.0000   -0.0000    0.0000
     atom=  74, XYZ(ang) Fxyz(a.u.)=   2.4674    2.8491   10.4990    -0.0000   -0.0000    0.0000
     atom=  75, XYZ(ang) Fxyz(a.u.)=   1.2338    4.9859   10.4990    -0.0000   -0.0000    0.0000
     atom=  76, XYZ(ang) Fxyz(a.u.)=   0.0002    7.1225   10.4991    -0.0000   -0.0000    0.0000
     atom=  77, XYZ(ang) Fxyz(a.u.)=  -1.2335    9.2592   10.4994    -0.0000    0.0000    0.0000
     atom=  78, XYZ(ang) Fxyz(a.u.)=  -2.4672   11.3959   10.4984    -0.0000    0.0000    0.0000
     atom=  79, XYZ(ang) Fxyz(a.u.)=  -3.7009   13.5327   10.4970    -0.0000    0.0000   -0.0000
     atom=  80, XYZ(ang) Fxyz(a.u.)=  -4.9345   15.6694   10.4970     0.0000   -0.0000   -0.0000
     atom=  81, XYZ(ang) Fxyz(a.u.)=   6.1683    0.7123   10.4982     0.0000   -0.0000    0.0000
     atom=  82, XYZ(ang) Fxyz(a.u.)=   4.9346    2.8491   10.4989    -0.0000   -0.0000    0.0000
     atom=  83, XYZ(ang) Fxyz(a.u.)=   3.7011    4.9860   10.4972     0.0000   -0.0000   -0.0000
     atom=  84, XYZ(ang) Fxyz(a.u.)=   2.4678    7.1227   10.4952    -0.0000   -0.0000    0.0000
     atom=  85, XYZ(ang) Fxyz(a.u.)=   1.2339    9.2592   10.4976    -0.0000    0.0000    0.0000
     atom=  86, XYZ(ang) Fxyz(a.u.)=   0.0001   11.3959   10.4993    -0.0000    0.0000    0.0000
     atom=  87, XYZ(ang) Fxyz(a.u.)=  -1.2336   13.5327   10.4984    -0.0000    0.0000    0.0000
     atom=  88, XYZ(ang) Fxyz(a.u.)=  -2.4672   15.6694   10.4973    -0.0000   -0.0000   -0.0000
     atom=  89, XYZ(ang) Fxyz(a.u.)=   8.6356    0.7123   10.4978    -0.0000   -0.0000   -0.0000
     atom=  90, XYZ(ang) Fxyz(a.u.)=   7.4019    2.8491   10.4991     0.0000   -0.0000    0.0000
     atom=  91, XYZ(ang) Fxyz(a.u.)=   6.1682    4.9860   10.4972     0.0000   -0.0000   -0.0000
     atom=  92, XYZ(ang) Fxyz(a.u.)=   4.9346    7.1228   10.4899     0.0000   -0.0000   -0.0000
     atom=  93, XYZ(ang) Fxyz(a.u.)=   3.7013    9.2591   10.4902    -0.0000    0.0000    0.0001
     atom=  94, XYZ(ang) Fxyz(a.u.)=   2.4675   11.3958   10.4974    -0.0000    0.0000    0.0000
     atom=  95, XYZ(ang) Fxyz(a.u.)=   1.2337   13.5326   10.4993    -0.0000    0.0000    0.0000
     atom=  96, XYZ(ang) Fxyz(a.u.)=   0.0000   15.6694   10.4978    -0.0000    0.0000   -0.0000
     atom=  97, XYZ(ang) Fxyz(a.u.)=  11.1028    0.7123   10.4974    -0.0000   -0.0000   -0.0000
     atom=  98, XYZ(ang) Fxyz(a.u.)=   9.8692    2.8490   10.4986    -0.0000   -0.0000    0.0000
     atom=  99, XYZ(ang) Fxyz(a.u.)=   8.6355    4.9859   10.4990     0.0000   -0.0000   -0.0000
     atom= 100, XYZ(ang) Fxyz(a.u.)=   7.4015    7.1227   10.4952     0.0000   -0.0000   -0.0000
     atom= 101, XYZ(ang) Fxyz(a.u.)=   6.1680    9.2591   10.4899     0.0000    0.0000   -0.0000
     atom= 102, XYZ(ang) Fxyz(a.u.)=   4.9346   11.3954   10.4949     0.0000    0.0000    0.0000
     atom= 103, XYZ(ang) Fxyz(a.u.)=   3.7010   13.5326   10.4987    -0.0000    0.0000    0.0000
     atom= 104, XYZ(ang) Fxyz(a.u.)=   2.4674   15.6694   10.4984    -0.0000    0.0000   -0.0000
     atom= 105, XYZ(ang) Fxyz(a.u.)=  13.5701    0.7123   10.4973    -0.0000   -0.0000   -0.0000
     atom= 106, XYZ(ang) Fxyz(a.u.)=  12.3365    2.8490   10.4974    -0.0000   -0.0000   -0.0000
     atom= 107, XYZ(ang) Fxyz(a.u.)=  11.1028    4.9858   10.4990     0.0000   -0.0000    0.0000
     atom= 108, XYZ(ang) Fxyz(a.u.)=   9.8691    7.1225   10.4991     0.0000   -0.0000   -0.0000
     atom= 109, XYZ(ang) Fxyz(a.u.)=   8.6353    9.2592   10.4975     0.0000    0.0000   -0.0000
     atom= 110, XYZ(ang) Fxyz(a.u.)=   7.4018   11.3958   10.4973     0.0000    0.0000   -0.0000
     atom= 111, XYZ(ang) Fxyz(a.u.)=   6.1682   13.5326   10.4988     0.0000    0.0000    0.0000
     atom= 112, XYZ(ang) Fxyz(a.u.)=   4.9346   15.6694   10.4987    -0.0000    0.0000    0.0000
     atom= 113, XYZ(ang) Fxyz(a.u.)=  16.0374    0.7123   10.4975     0.0000   -0.0000    0.0000
     atom= 114, XYZ(ang) Fxyz(a.u.)=  14.8038    2.8490   10.4967     0.0000    0.0000   -0.0000
     atom= 115, XYZ(ang) Fxyz(a.u.)=  13.5701    4.9858   10.4974     0.0000    0.0000   -0.0000
     atom= 116, XYZ(ang) Fxyz(a.u.)=  12.3365    7.1225   10.4986     0.0000    0.0000    0.0000
     atom= 117, XYZ(ang) Fxyz(a.u.)=  11.1028    9.2592   10.4992     0.0000    0.0000    0.0000
     atom= 118, XYZ(ang) Fxyz(a.u.)=   9.8692   11.3959   10.4991     0.0000    0.0000    0.0000
     atom= 119, XYZ(ang) Fxyz(a.u.)=   8.6355   13.5326   10.4990     0.0000    0.0000    0.0000
     atom= 120, XYZ(ang) Fxyz(a.u.)=   7.4019   15.6694   10.4984     0.0000    0.0000    0.0000
     atom= 121, XYZ(ang) Fxyz(a.u.)=  18.5047    0.7123   10.4973     0.0000   -0.0000   -0.0000
     atom= 122, XYZ(ang) Fxyz(a.u.)=  17.2711    2.8490   10.4974     0.0000   -0.0000    0.0000
     atom= 123, XYZ(ang) Fxyz(a.u.)=  16.0374    4.9858   10.4972     0.0000    0.0000   -0.0000
     atom= 124, XYZ(ang) Fxyz(a.u.)=  14.8038    7.1225   10.4973    -0.0000    0.0000   -0.0000
     atom= 125, XYZ(ang) Fxyz(a.u.)=  13.5701    9.2592   10.4976     0.0000    0.0000   -0.0000
     atom= 126, XYZ(ang) Fxyz(a.u.)=  12.3365   11.3959   10.4982     0.0000    0.0000    0.0000
     atom= 127, XYZ(ang) Fxyz(a.u.)=  11.1028   13.5327   10.4982     0.0000    0.0000    0.0000
     atom= 128, XYZ(ang) Fxyz(a.u.)=   9.8692   15.6694   10.4977     0.0000    0.0000   -0.0000
     atom= 129, XYZ(ang) Fxyz(a.u.)=   4.9346    8.5469   14.6358    -0.0000    0.0000    0.0001
     atom= 130, XYZ(ang) Fxyz(a.u.)=   4.9346    8.5469   13.4494     0.0000   -0.0000    0.0000
     atom= 131, XYZ(ang) Fxyz(a.u.)=   4.9346    8.5469   15.8254     0.0000    0.0000   -0.0000

outputting data on grids to files...


***********************************************************
***********************************************************
               Computational Time (second)                 
***********************************************************
***********************************************************

                               Min_ID   Min_Time       Max_ID   Max_Time
   Total Computational Time =    60     4562.257          0     4562.422
   readfile                 =    48        2.419          0        2.424
   truncation               =    37       15.005         63       16.576
   MD_pac                   =     0        0.670         63        0.725
   OutData                  =    48        0.627          0        0.784
   DFT                      =    63     4541.843         37     4543.414

*** In DFT ***

   Set_OLP_Kin              =    37       13.106         47       26.620
   Set_Nonlocal             =    47       36.810         37       50.339
   Set_ProExpn_VNA          =     7       72.943         31       77.664
   Set_Hamiltonian          =    34      255.424          7      255.428
   Poisson                  =    18        3.109          1        3.110
   Diagonalization          =     0     3912.283         24     3912.288
   Mixing_DM                =    50       27.483          9       27.485
   Force                    =    18       60.889          7       60.890
   Total_Energy             =    63       20.025          0       20.031
   Set_Aden_Grid            =    31        1.068         37        5.779
   Set_Orbitals_Grid        =    37        5.044         31       12.371
   Set_Density_Grid         =    35       94.132          8      102.219
   RestartFileDFT           =    63        0.876         37        4.932
   Mulliken_Charge          =    34        0.210          0        0.210
   FFT(2D)_Density          =     5        3.407         18        3.417
   Others                   =    31        2.711         35       13.654

The calculation was normally finished.
