
The number of threads in each node for OpenMP parallelization is 1.


*******************************************************
*******************************************************
 Welcome to OpenMX   Ver. 3.9.9                           
 Copyright (C), 2002-2019, T. Ozaki                    
 OpenMX comes with ABSOLUTELY NO WARRANTY.             
 This is free software, and you are welcome to         
 redistribute it under the constitution of the GNU-GPL.
*******************************************************
*******************************************************

Automatic determination of Kerker_factor:   3.992945286074


<Input_std>  Your input file was normally read.
<Input_std>  The system includes 2 species and 107 atoms.

*******************************************************
                     PAO and VPS                       
*******************************************************

<SetPara_DFT>  PAOs of species C were normally found.
<SetPara_DFT>  PAOs of species O were normally found.
<SetPara_DFT>  VPSs of species C were normally found.
               C_PBE19.vps is j-dependent.
               In case of scf.SpinOrbit.Coupling=off,
               j-dependent pseudo potentials are averaged by j-degeneracy,
               which corresponds to a scalar relativistic treatment.
<SetPara_DFT>  VPSs of species O were normally found.
               O_PBE19.vps is j-dependent.
               In case of scf.SpinOrbit.Coupling=off,
               j-dependent pseudo potentials are averaged by j-degeneracy,
               which corresponds to a scalar relativistic treatment.

*******************************************************
     Fourier transform of PAO and projectors of VNL    
*******************************************************

<FT_PAO>          Fourier transform of pseudo atomic orbitals
<FT_NLP>          Fourier transform of non-local projectors
<FT_ProExpn_VNA>  Fourier transform of VNA separable projectors
<FT_VNA>          Fourier transform of VNA potentials
<FT_ProductPAO>   Fourier transform of product of PAOs

*******************************************************
  Allocation of atoms to processors at MD_iter=    1     
*******************************************************

 proc =   0  # of atoms=   1  estimated weight=         1.00000
 proc =   1  # of atoms=   2  estimated weight=         2.00000
 proc =   2  # of atoms=   1  estimated weight=         1.00000
 proc =   3  # of atoms=   2  estimated weight=         2.00000
 proc =   4  # of atoms=   1  estimated weight=         1.00000
 proc =   5  # of atoms=   2  estimated weight=         2.00000
 proc =   6  # of atoms=   2  estimated weight=         2.00000
 proc =   7  # of atoms=   2  estimated weight=         2.00000
 proc =   8  # of atoms=   1  estimated weight=         1.00000
 proc =   9  # of atoms=   2  estimated weight=         2.00000
 proc =  10  # of atoms=   1  estimated weight=         1.00000
 proc =  11  # of atoms=   2  estimated weight=         2.00000
 proc =  12  # of atoms=   1  estimated weight=         1.00000
 proc =  13  # of atoms=   2  estimated weight=         2.00000
 proc =  14  # of atoms=   2  estimated weight=         2.00000
 proc =  15  # of atoms=   2  estimated weight=         2.00000
 proc =  16  # of atoms=   1  estimated weight=         1.00000
 proc =  17  # of atoms=   2  estimated weight=         2.00000
 proc =  18  # of atoms=   1  estimated weight=         1.00000
 proc =  19  # of atoms=   2  estimated weight=         2.00000
 proc =  20  # of atoms=   1  estimated weight=         1.00000
 proc =  21  # of atoms=   2  estimated weight=         2.00000
 proc =  22  # of atoms=   2  estimated weight=         2.00000
 proc =  23  # of atoms=   2  estimated weight=         2.00000
 proc =  24  # of atoms=   1  estimated weight=         1.00000
 proc =  25  # of atoms=   2  estimated weight=         2.00000
 proc =  26  # of atoms=   2  estimated weight=         2.00000
 proc =  27  # of atoms=   2  estimated weight=         2.00000
 proc =  28  # of atoms=   1  estimated weight=         1.00000
 proc =  29  # of atoms=   2  estimated weight=         2.00000
 proc =  30  # of atoms=   2  estimated weight=         2.00000
 proc =  31  # of atoms=   2  estimated weight=         2.00000
 proc =  32  # of atoms=   1  estimated weight=         1.00000
 proc =  33  # of atoms=   2  estimated weight=         2.00000
 proc =  34  # of atoms=   1  estimated weight=         1.00000
 proc =  35  # of atoms=   2  estimated weight=         2.00000
 proc =  36  # of atoms=   1  estimated weight=         1.00000
 proc =  37  # of atoms=   2  estimated weight=         2.00000
 proc =  38  # of atoms=   2  estimated weight=         2.00000
 proc =  39  # of atoms=   2  estimated weight=         2.00000
 proc =  40  # of atoms=   1  estimated weight=         1.00000
 proc =  41  # of atoms=   2  estimated weight=         2.00000
 proc =  42  # of atoms=   2  estimated weight=         2.00000
 proc =  43  # of atoms=   2  estimated weight=         2.00000
 proc =  44  # of atoms=   1  estimated weight=         1.00000
 proc =  45  # of atoms=   2  estimated weight=         2.00000
 proc =  46  # of atoms=   2  estimated weight=         2.00000
 proc =  47  # of atoms=   2  estimated weight=         2.00000
 proc =  48  # of atoms=   1  estimated weight=         1.00000
 proc =  49  # of atoms=   2  estimated weight=         2.00000
 proc =  50  # of atoms=   1  estimated weight=         1.00000
 proc =  51  # of atoms=   2  estimated weight=         2.00000
 proc =  52  # of atoms=   1  estimated weight=         1.00000
 proc =  53  # of atoms=   2  estimated weight=         2.00000
 proc =  54  # of atoms=   2  estimated weight=         2.00000
 proc =  55  # of atoms=   2  estimated weight=         2.00000
 proc =  56  # of atoms=   1  estimated weight=         1.00000
 proc =  57  # of atoms=   2  estimated weight=         2.00000
 proc =  58  # of atoms=   2  estimated weight=         2.00000
 proc =  59  # of atoms=   2  estimated weight=         2.00000
 proc =  60  # of atoms=   1  estimated weight=         1.00000
 proc =  61  # of atoms=   2  estimated weight=         2.00000
 proc =  62  # of atoms=   2  estimated weight=         2.00000
 proc =  63  # of atoms=   2  estimated weight=         2.00000




*******************************************************
        Analysis of neighbors and setting of grids        
*******************************************************

TFNAN=    4222   Average FNAN=  39.45794
TSNAN=       0   Average SNAN=   0.00000
<truncation> CpyCell= 1 ct_AN=   1 FNAN SNAN  42   0
<truncation> CpyCell= 1 ct_AN=   2 FNAN SNAN  40   0
<truncation> CpyCell= 1 ct_AN=   3 FNAN SNAN  40   0
<truncation> CpyCell= 1 ct_AN=   4 FNAN SNAN  42   0
<truncation> CpyCell= 1 ct_AN=   5 FNAN SNAN  43   0
<truncation> CpyCell= 1 ct_AN=   6 FNAN SNAN  43   0
<truncation> CpyCell= 1 ct_AN=   7 FNAN SNAN  43   0
<truncation> CpyCell= 1 ct_AN=   8 FNAN SNAN  43   0
<truncation> CpyCell= 1 ct_AN=   9 FNAN SNAN  39   0
<truncation> CpyCell= 1 ct_AN=  10 FNAN SNAN  37   0
<truncation> CpyCell= 1 ct_AN=  11 FNAN SNAN  36   0
<truncation> CpyCell= 1 ct_AN=  12 FNAN SNAN  37   0
<truncation> CpyCell= 1 ct_AN=  13 FNAN SNAN  39   0
<truncation> CpyCell= 1 ct_AN=  14 FNAN SNAN  43   0
<truncation> CpyCell= 1 ct_AN=  15 FNAN SNAN  45   0
<truncation> CpyCell= 1 ct_AN=  16 FNAN SNAN  43   0
<truncation> CpyCell= 1 ct_AN=  17 FNAN SNAN  37   0
<truncation> CpyCell= 1 ct_AN=  18 FNAN SNAN  34   0
<truncation> CpyCell= 1 ct_AN=  19 FNAN SNAN  33   0
<truncation> CpyCell= 1 ct_AN=  20 FNAN SNAN  38   0
     ..........
     ......

TFNAN=    4222   Average FNAN=  39.45794
TSNAN=       0   Average SNAN=   0.00000
<truncation> CpyCell= 2 ct_AN=   1 FNAN SNAN  42   0
<truncation> CpyCell= 2 ct_AN=   2 FNAN SNAN  40   0
<truncation> CpyCell= 2 ct_AN=   3 FNAN SNAN  40   0
<truncation> CpyCell= 2 ct_AN=   4 FNAN SNAN  42   0
<truncation> CpyCell= 2 ct_AN=   5 FNAN SNAN  43   0
<truncation> CpyCell= 2 ct_AN=   6 FNAN SNAN  43   0
<truncation> CpyCell= 2 ct_AN=   7 FNAN SNAN  43   0
<truncation> CpyCell= 2 ct_AN=   8 FNAN SNAN  43   0
<truncation> CpyCell= 2 ct_AN=   9 FNAN SNAN  39   0
<truncation> CpyCell= 2 ct_AN=  10 FNAN SNAN  37   0
<truncation> CpyCell= 2 ct_AN=  11 FNAN SNAN  36   0
<truncation> CpyCell= 2 ct_AN=  12 FNAN SNAN  37   0
<truncation> CpyCell= 2 ct_AN=  13 FNAN SNAN  39   0
<truncation> CpyCell= 2 ct_AN=  14 FNAN SNAN  43   0
<truncation> CpyCell= 2 ct_AN=  15 FNAN SNAN  45   0
<truncation> CpyCell= 2 ct_AN=  16 FNAN SNAN  43   0
<truncation> CpyCell= 2 ct_AN=  17 FNAN SNAN  37   0
<truncation> CpyCell= 2 ct_AN=  18 FNAN SNAN  34   0
<truncation> CpyCell= 2 ct_AN=  19 FNAN SNAN  33   0
<truncation> CpyCell= 2 ct_AN=  20 FNAN SNAN  38   0
     ..........
     ......

TFNAN=    4222   Average FNAN=  39.45794
TSNAN=       0   Average SNAN=   0.00000
<truncation> CpyCell= 2 ct_AN=   1 FNAN SNAN  42   0
<truncation> CpyCell= 2 ct_AN=   2 FNAN SNAN  40   0
<truncation> CpyCell= 2 ct_AN=   3 FNAN SNAN  40   0
<truncation> CpyCell= 2 ct_AN=   4 FNAN SNAN  42   0
<truncation> CpyCell= 2 ct_AN=   5 FNAN SNAN  43   0
<truncation> CpyCell= 2 ct_AN=   6 FNAN SNAN  43   0
<truncation> CpyCell= 2 ct_AN=   7 FNAN SNAN  43   0
<truncation> CpyCell= 2 ct_AN=   8 FNAN SNAN  43   0
<truncation> CpyCell= 2 ct_AN=   9 FNAN SNAN  39   0
<truncation> CpyCell= 2 ct_AN=  10 FNAN SNAN  37   0
<truncation> CpyCell= 2 ct_AN=  11 FNAN SNAN  36   0
<truncation> CpyCell= 2 ct_AN=  12 FNAN SNAN  37   0
<truncation> CpyCell= 2 ct_AN=  13 FNAN SNAN  39   0
<truncation> CpyCell= 2 ct_AN=  14 FNAN SNAN  43   0
<truncation> CpyCell= 2 ct_AN=  15 FNAN SNAN  45   0
<truncation> CpyCell= 2 ct_AN=  16 FNAN SNAN  43   0
<truncation> CpyCell= 2 ct_AN=  17 FNAN SNAN  37   0
<truncation> CpyCell= 2 ct_AN=  18 FNAN SNAN  34   0
<truncation> CpyCell= 2 ct_AN=  19 FNAN SNAN  33   0
<truncation> CpyCell= 2 ct_AN=  20 FNAN SNAN  38   0
     ..........
     ......

<Check_System> The system is slab.
lattice vectors (bohr)
A  = 37.299978480367,  0.000000000000,  0.000000000000
B  = -18.649989240184, 32.302728872609,  0.000000000000
C  =  0.000000000000,  0.000000000000, 39.684245760157
reciprocal lattice vectors (bohr^-1)
RA =  0.168450105420,  0.097254713866, -0.000000000000
RB =  0.000000000000,  0.194509427732,  0.000000000000
RC =  0.000000000000, -0.000000000000,  0.158329462658
Grid_Origin  0.051805529199  0.089729821851  0.144844598660
Cell_Volume =  47815.194201431834 (Bohr^3)
GridVol     =      0.006832303698 (Bohr^3)
Grid_Origin  0.051805529199  0.089729821851  0.144844598660
Cell_Volume =  47815.194201431834 (Bohr^3)
GridVol     =      0.006832303698 (Bohr^3)
<UCell_Box> Info. of cutoff energy and num. of grids
lattice vectors (bohr)
A  = 37.299978480367,  0.000000000000,  0.000000000000
B  = -18.649989240184, 32.302728872609,  0.000000000000
C  =  0.000000000000,  0.000000000000, 39.684245760157
reciprocal lattice vectors (bohr^-1)
RA =  0.168450105420,  0.097254713866, -0.000000000000
RB =  0.000000000000,  0.194509427732,  0.000000000000
RC =  0.000000000000, -0.000000000000,  0.158329462658
Required cutoff energy (Ryd) for 3D-grids = 300.0000
    Used cutoff energy (Ryd) for 3D-grids = 306.4547, 306.4547, 292.3957
Num. of grids of a-, b-, and c-axes = 180, 180, 216
Grid_Origin  0.051805529199  0.089729821851  0.144844598660
Cell_Volume =  47815.194201431834 (Bohr^3)
GridVol     =      0.006832303698 (Bohr^3)
Cell vectors (bohr) of the grid cell (gtv)
  gtv_a =  0.207222102669,  0.000000000000,  0.000000000000
  gtv_b = -0.103611051334,  0.179459604848,  0.000000000000
  gtv_c =  0.000000000000,  0.000000000000,  0.183723360001
  |gtv_a| =  0.207222102669
  |gtv_b| =  0.207222102419
  |gtv_c| =  0.183723360001
Num. of grids overlapping with atom    1 = 132399
Num. of grids overlapping with atom    2 = 132430
Num. of grids overlapping with atom    3 = 132423
Num. of grids overlapping with atom    4 = 132473
Num. of grids overlapping with atom    5 = 132374
Num. of grids overlapping with atom    6 = 132476
Num. of grids overlapping with atom    7 = 132398
Num. of grids overlapping with atom    8 = 132495
Num. of grids overlapping with atom    9 = 132416
Num. of grids overlapping with atom   10 = 132419
Num. of grids overlapping with atom   11 = 132463
Num. of grids overlapping with atom   12 = 132413
Num. of grids overlapping with atom   13 = 132397
Num. of grids overlapping with atom   14 = 132404
Num. of grids overlapping with atom   15 = 132373
Num. of grids overlapping with atom   16 = 132397
Num. of grids overlapping with atom   17 = 132448
Num. of grids overlapping with atom   18 = 132405
Num. of grids overlapping with atom   19 = 132413
Num. of grids overlapping with atom   20 = 132433
     ..........
     ......


*******************************************************
             SCF calculation at MD = 1                
*******************************************************

<MD= 1>  Calculation of the overlap matrix
<MD= 1>  Calculation of the nonlocal matrix
<MD= 1>  Calculation of the VNA projector matrix

******************* MD= 1  SCF= 1 *******************
<Band>  Solving the eigenvalue problem...
 KGrids1:  -0.43750  -0.31250  -0.18750  -0.06250   0.06250   0.18750   0.31250   0.43750 
 KGrids2:  -0.43750  -0.31250  -0.18750  -0.06250   0.06250   0.18750   0.31250   0.43750 
 KGrids3:   0.00000 
<Band_DFT>  Eigen, time=15.796843
<Band_DFT>  DM, time=0.000012
    1    C  MulP   1.9842  1.9842 sum   3.9685
    2    C  MulP   1.9950  1.9950 sum   3.9899
    3    C  MulP   1.9952  1.9952 sum   3.9903
    4    C  MulP   1.9840  1.9840 sum   3.9681
    5    C  MulP   1.9996  1.9996 sum   3.9992
    6    C  MulP   1.9818  1.9818 sum   3.9636
    7    C  MulP   1.9820  1.9820 sum   3.9639
    8    C  MulP   1.9995  1.9995 sum   3.9991
    9    C  MulP   1.9852  1.9852 sum   3.9704
   10    C  MulP   1.9896  1.9896 sum   3.9791
   11    C  MulP   1.9627  1.9627 sum   3.9253
   12    C  MulP   1.9895  1.9895 sum   3.9789
   13    C  MulP   1.9853  1.9853 sum   3.9705
   14    C  MulP   1.9820  1.9820 sum   3.9640
   15    C  MulP   1.9974  1.9974 sum   3.9948
   16    C  MulP   1.9819  1.9819 sum   3.9639
   17    C  MulP   1.9589  1.9589 sum   3.9178
   18    C  MulP   2.1054  2.1054 sum   4.2107
   19    C  MulP   2.1020  2.1020 sum   4.2040
   20    C  MulP   1.9585  1.9585 sum   3.9171
     ..........
     ......

 Sum of MulP: up   =   216.00000 down          =   216.00000
              total=   432.00000 ideal(neutral)=   432.00000
<DFT>  Total Spin Moment (muB) =  0.000000000000
<DFT>  Mixing_weight= 0.050000000000
<DFT>  Uele   = -174.911251543712  dUele     =   1.000000000000
<DFT>  NormRD =    1.000000000000  Criterion =   0.000000010000

******************* MD= 1  SCF= 2 *******************
<Poisson>  Poisson's equation using FFT...
<Set_Hamiltonian>  Hamiltonian matrix for VNA+dVH+Vxc...
<Band>  Solving the eigenvalue problem...
 KGrids1:  -0.43750  -0.31250  -0.18750  -0.06250   0.06250   0.18750   0.31250   0.43750 
 KGrids2:  -0.43750  -0.31250  -0.18750  -0.06250   0.06250   0.18750   0.31250   0.43750 
 KGrids3:   0.00000 
<Band_DFT>  Eigen, time=9.057686
<Band_DFT>  DM, time=0.000000
    1    C  MulP   1.9842  1.9842 sum   3.9685
    2    C  MulP   1.9950  1.9950 sum   3.9899
    3    C  MulP   1.9952  1.9952 sum   3.9903
    4    C  MulP   1.9840  1.9840 sum   3.9681
    5    C  MulP   1.9996  1.9996 sum   3.9992
    6    C  MulP   1.9818  1.9818 sum   3.9636
    7    C  MulP   1.9820  1.9820 sum   3.9639
    8    C  MulP   1.9995  1.9995 sum   3.9991
    9    C  MulP   1.9852  1.9852 sum   3.9704
   10    C  MulP   1.9896  1.9896 sum   3.9791
   11    C  MulP   1.9627  1.9627 sum   3.9253
   12    C  MulP   1.9895  1.9895 sum   3.9789
   13    C  MulP   1.9853  1.9853 sum   3.9705
   14    C  MulP   1.9820  1.9820 sum   3.9640
   15    C  MulP   1.9974  1.9974 sum   3.9948
   16    C  MulP   1.9819  1.9819 sum   3.9639
   17    C  MulP   1.9589  1.9589 sum   3.9178
   18    C  MulP   2.1054  2.1054 sum   4.2107
   19    C  MulP   2.1020  2.1020 sum   4.2040
   20    C  MulP   1.9585  1.9585 sum   3.9171
     ..........
     ......

 Sum of MulP: up   =   216.00000 down          =   216.00000
              total=   432.00000 ideal(neutral)=   432.00000
<DFT>  Total Spin Moment (muB) =  0.000000000000
<DFT>  Mixing_weight= 0.010000000000
<DFT>  Uele   = -174.911251543712  dUele     =   0.000000000000
<DFT>  NormRD =    9.608610599613  Criterion =   0.000000010000

******************* MD= 1  SCF= 3 *******************
<Poisson>  Poisson's equation using FFT...
<Set_Hamiltonian>  Hamiltonian matrix for VNA+dVH+Vxc...
<Band>  Solving the eigenvalue problem...
 KGrids1:  -0.43750  -0.31250  -0.18750  -0.06250   0.06250   0.18750   0.31250   0.43750 
 KGrids2:  -0.43750  -0.31250  -0.18750  -0.06250   0.06250   0.18750   0.31250   0.43750 
 KGrids3:   0.00000 
<Band_DFT>  Eigen, time=9.010902
<Band_DFT>  DM, time=0.000000
    1    C  MulP   1.9845  1.9845 sum   3.9690
    2    C  MulP   1.9950  1.9950 sum   3.9899
    3    C  MulP   1.9952  1.9952 sum   3.9903
    4    C  MulP   1.9843  1.9843 sum   3.9686
    5    C  MulP   1.9996  1.9996 sum   3.9992
    6    C  MulP   1.9822  1.9822 sum   3.9643
    7    C  MulP   1.9823  1.9823 sum   3.9647
    8    C  MulP   1.9995  1.9995 sum   3.9990
    9    C  MulP   1.9855  1.9855 sum   3.9710
   10    C  MulP   1.9893  1.9893 sum   3.9786
   11    C  MulP   1.9635  1.9635 sum   3.9270
   12    C  MulP   1.9892  1.9892 sum   3.9783
   13    C  MulP   1.9855  1.9855 sum   3.9711
   14    C  MulP   1.9824  1.9824 sum   3.9647
   15    C  MulP   1.9974  1.9974 sum   3.9948
   16    C  MulP   1.9823  1.9823 sum   3.9647
   17    C  MulP   1.9604  1.9604 sum   3.9207
   18    C  MulP   2.1039  2.1039 sum   4.2079
   19    C  MulP   2.0999  2.0999 sum   4.1998
   20    C  MulP   1.9599  1.9599 sum   3.9198
     ..........
     ......

 Sum of MulP: up   =   216.00000 down          =   216.00000
              total=   432.00000 ideal(neutral)=   432.00000
<DFT>  Total Spin Moment (muB) =  0.000000000000
<DFT>  Mixing_weight= 0.300000000000
<DFT>  Uele   = -175.299428128511  dUele     =   0.388176584799
<DFT>  NormRD =    9.486986530104  Criterion =   0.000000010000

******************* MD= 1  SCF= 4 *******************
<Poisson>  Poisson's equation using FFT...
<Set_Hamiltonian>  Hamiltonian matrix for VNA+dVH+Vxc...
<Band>  Solving the eigenvalue problem...
 KGrids1:  -0.43750  -0.31250  -0.18750  -0.06250   0.06250   0.18750   0.31250   0.43750 
 KGrids2:  -0.43750  -0.31250  -0.18750  -0.06250   0.06250   0.18750   0.31250   0.43750 
 KGrids3:   0.00000 
<Band_DFT>  Eigen, time=9.033936
<Band_DFT>  DM, time=0.000001
    1    C  MulP   1.9941  1.9941 sum   3.9882
    2    C  MulP   1.9945  1.9945 sum   3.9891
    3    C  MulP   1.9948  1.9948 sum   3.9895
    4    C  MulP   1.9936  1.9936 sum   3.9872
    5    C  MulP   1.9986  1.9986 sum   3.9971
    6    C  MulP   1.9943  1.9943 sum   3.9887
    7    C  MulP   1.9946  1.9946 sum   3.9891
    8    C  MulP   1.9985  1.9985 sum   3.9970
    9    C  MulP   1.9952  1.9952 sum   3.9903
   10    C  MulP   1.9810  1.9810 sum   3.9621
   11    C  MulP   1.9853  1.9853 sum   3.9706
   12    C  MulP   1.9803  1.9803 sum   3.9605
   13    C  MulP   1.9944  1.9944 sum   3.9888
   14    C  MulP   1.9944  1.9944 sum   3.9887
   15    C  MulP   1.9960  1.9960 sum   3.9921
   16    C  MulP   1.9945  1.9945 sum   3.9891
   17    C  MulP   2.0011  2.0011 sum   4.0023
   18    C  MulP   2.0614  2.0614 sum   4.1229
   19    C  MulP   2.0381  2.0381 sum   4.0762
   20    C  MulP   1.9991  1.9991 sum   3.9982
     ..........
     ......

 Sum of MulP: up   =   216.00000 down          =   216.00000
              total=   432.00000 ideal(neutral)=   432.00000
<DFT>  Total Spin Moment (muB) =  0.000000000000
<DFT>  Mixing_weight= 0.300000000000
<DFT>  Uele   = -186.842819821266  dUele     =  11.543391692755
<DFT>  NormRD =    6.037873086227  Criterion =   0.000000010000

******************* MD= 1  SCF= 5 *******************
<Poisson>  Poisson's equation using FFT...
<Set_Hamiltonian>  Hamiltonian matrix for VNA+dVH+Vxc...
<Band>  Solving the eigenvalue problem...
 KGrids1:  -0.43750  -0.31250  -0.18750  -0.06250   0.06250   0.18750   0.31250   0.43750 
 KGrids2:  -0.43750  -0.31250  -0.18750  -0.06250   0.06250   0.18750   0.31250   0.43750 
 KGrids3:   0.00000 
<Band_DFT>  Eigen, time=9.013421
<Band_DFT>  DM, time=0.000000
    1    C  MulP   1.9954  1.9954 sum   3.9907
    2    C  MulP   1.9930  1.9930 sum   3.9860
    3    C  MulP   1.9931  1.9931 sum   3.9861
    4    C  MulP   1.9954  1.9954 sum   3.9909
    5    C  MulP   1.9981  1.9981 sum   3.9962
    6    C  MulP   1.9958  1.9958 sum   3.9917
    7    C  MulP   1.9960  1.9960 sum   3.9920
    8    C  MulP   1.9980  1.9980 sum   3.9961
    9    C  MulP   1.9946  1.9946 sum   3.9892
   10    C  MulP   1.9770  1.9770 sum   3.9540
   11    C  MulP   1.9818  1.9818 sum   3.9636
   12    C  MulP   1.9779  1.9779 sum   3.9557
   13    C  MulP   1.9958  1.9958 sum   3.9917
   14    C  MulP   1.9962  1.9962 sum   3.9924
   15    C  MulP   1.9975  1.9975 sum   3.9950
   16    C  MulP   1.9960  1.9960 sum   3.9920
   17    C  MulP   2.0023  2.0023 sum   4.0046
   18    C  MulP   2.0494  2.0494 sum   4.0988
   19    C  MulP   2.0667  2.0667 sum   4.1333
   20    C  MulP   2.0043  2.0043 sum   4.0086
     ..........
     ......

 Sum of MulP: up   =   216.00000 down          =   216.00000
              total=   432.00000 ideal(neutral)=   432.00000
<DFT>  Total Spin Moment (muB) =  0.000000000000
<DFT>  Mixing_weight= 0.300000000000
<DFT>  Uele   = -194.013056593126  dUele     =   7.170236771860
<DFT>  NormRD =    4.040762991522  Criterion =   0.000000010000

******************* MD= 1  SCF= 6 *******************
<Poisson>  Poisson's equation using FFT...
<Set_Hamiltonian>  Hamiltonian matrix for VNA+dVH+Vxc...
<Band>  Solving the eigenvalue problem...
 KGrids1:  -0.43750  -0.31250  -0.18750  -0.06250   0.06250   0.18750   0.31250   0.43750 
 KGrids2:  -0.43750  -0.31250  -0.18750  -0.06250   0.06250   0.18750   0.31250   0.43750 
 KGrids3:   0.00000 
<Band_DFT>  Eigen, time=9.037300
<Band_DFT>  DM, time=0.000001
    1    C  MulP   1.9969  1.9969 sum   3.9937
    2    C  MulP   1.9929  1.9929 sum   3.9858
    3    C  MulP   1.9931  1.9931 sum   3.9863
    4    C  MulP   1.9961  1.9961 sum   3.9921
    5    C  MulP   1.9984  1.9984 sum   3.9969
    6    C  MulP   1.9969  1.9969 sum   3.9939
    7    C  MulP   1.9972  1.9972 sum   3.9944
    8    C  MulP   1.9982  1.9982 sum   3.9965
    9    C  MulP   1.9959  1.9959 sum   3.9918
   10    C  MulP   1.9775  1.9775 sum   3.9551
   11    C  MulP   1.9809  1.9809 sum   3.9619
   12    C  MulP   1.9758  1.9758 sum   3.9515
   13    C  MulP   1.9935  1.9935 sum   3.9871
   14    C  MulP   1.9967  1.9967 sum   3.9935
   15    C  MulP   1.9982  1.9982 sum   3.9964
   16    C  MulP   1.9972  1.9972 sum   3.9944
   17    C  MulP   2.0049  2.0049 sum   4.0098
   18    C  MulP   2.0717  2.0717 sum   4.1433
   19    C  MulP   2.0144  2.0144 sum   4.0289
   20    C  MulP   1.9991  1.9991 sum   3.9983
     ..........
     ......

 Sum of MulP: up   =   216.00000 down          =   216.00000
              total=   432.00000 ideal(neutral)=   432.00000
<DFT>  Total Spin Moment (muB) =  0.000000000000
<DFT>  Mixing_weight= 0.300000000000
<DFT>  Uele   = -198.646421709968  dUele     =   4.633365116842
<DFT>  NormRD =    2.744765273244  Criterion =   0.000000010000

******************* MD= 1  SCF= 7 *******************
<Poisson>  Poisson's equation using FFT...
<Set_Hamiltonian>  Hamiltonian matrix for VNA+dVH+Vxc...
<Band>  Solving the eigenvalue problem...
 KGrids1:  -0.43750  -0.31250  -0.18750  -0.06250   0.06250   0.18750   0.31250   0.43750 
 KGrids2:  -0.43750  -0.31250  -0.18750  -0.06250   0.06250   0.18750   0.31250   0.43750 
 KGrids3:   0.00000 
<Band_DFT>  Eigen, time=9.026229
<Band_DFT>  DM, time=0.000001
    1    C  MulP   1.9966  1.9966 sum   3.9932
    2    C  MulP   1.9937  1.9937 sum   3.9875
    3    C  MulP   1.9939  1.9939 sum   3.9877
    4    C  MulP   1.9974  1.9974 sum   3.9948
    5    C  MulP   1.9987  1.9987 sum   3.9973
    6    C  MulP   1.9971  1.9971 sum   3.9943
    7    C  MulP   1.9971  1.9971 sum   3.9942
    8    C  MulP   1.9987  1.9987 sum   3.9974
    9    C  MulP   1.9940  1.9940 sum   3.9881
   10    C  MulP   1.9748  1.9748 sum   3.9497
   11    C  MulP   1.9739  1.9739 sum   3.9478
   12    C  MulP   1.9777  1.9777 sum   3.9555
   13    C  MulP   1.9986  1.9986 sum   3.9971
   14    C  MulP   1.9981  1.9981 sum   3.9961
   15    C  MulP   1.9987  1.9987 sum   3.9973
   16    C  MulP   1.9972  1.9972 sum   3.9944
   17    C  MulP   1.9999  1.9999 sum   3.9998
   18    C  MulP   2.0309  2.0309 sum   4.0617
   19    C  MulP   2.1172  2.1172 sum   4.2343
   20    C  MulP   2.0104  2.0104 sum   4.0208
     ..........
     ......

 Sum of MulP: up   =   216.00000 down          =   216.00000
              total=   432.00000 ideal(neutral)=   432.00000
<DFT>  Total Spin Moment (muB) =  0.000000000000
<DFT>  Mixing_weight= 0.300000000000
<DFT>  Uele   = -201.684392151325  dUele     =   3.037970441356
<DFT>  NormRD =    1.932890966211  Criterion =   0.000000010000

******************* MD= 1  SCF= 8 *******************
<Poisson>  Poisson's equation using FFT...
<Set_Hamiltonian>  Hamiltonian matrix for VNA+dVH+Vxc...
<Band>  Solving the eigenvalue problem...
 KGrids1:  -0.43750  -0.31250  -0.18750  -0.06250   0.06250   0.18750   0.31250   0.43750 
 KGrids2:  -0.43750  -0.31250  -0.18750  -0.06250   0.06250   0.18750   0.31250   0.43750 
 KGrids3:   0.00000 
<Band_DFT>  Eigen, time=9.035212
<Band_DFT>  DM, time=0.000000
    1    C  MulP   1.9987  1.9987 sum   3.9975
    2    C  MulP   1.9932  1.9932 sum   3.9864
    3    C  MulP   1.9932  1.9932 sum   3.9864
    4    C  MulP   1.9963  1.9963 sum   3.9927
    5    C  MulP   1.9990  1.9990 sum   3.9980
    6    C  MulP   1.9982  1.9982 sum   3.9964
    7    C  MulP   1.9987  1.9987 sum   3.9974
    8    C  MulP   1.9986  1.9986 sum   3.9973
    9    C  MulP   1.9980  1.9980 sum   3.9961
   10    C  MulP   1.9792  1.9792 sum   3.9585
   11    C  MulP   1.9827  1.9827 sum   3.9654
   12    C  MulP   1.9731  1.9731 sum   3.9462
   13    C  MulP   1.9885  1.9885 sum   3.9770
   14    C  MulP   1.9969  1.9969 sum   3.9938
   15    C  MulP   1.9990  1.9990 sum   3.9979
   16    C  MulP   1.9986  1.9986 sum   3.9972
   17    C  MulP   2.0109  2.0109 sum   4.0219
   18    C  MulP   2.1103  2.1103 sum   4.2206
   19    C  MulP   1.8985  1.8985 sum   3.7969
   20    C  MulP   1.9887  1.9887 sum   3.9774
     ..........
     ......

 Sum of MulP: up   =   216.00000 down          =   216.00000
              total=   432.00000 ideal(neutral)=   432.00000
<DFT>  Total Spin Moment (muB) =  0.000000000000
<DFT>  Mixing_weight= 0.300000000000
<DFT>  Uele   = -203.721137487422  dUele     =   2.036745336097
<DFT>  NormRD =    1.705367961538  Criterion =   0.000000010000

******************* MD= 1  SCF= 9 *******************
<Poisson>  Poisson's equation using FFT...
<Set_Hamiltonian>  Hamiltonian matrix for VNA+dVH+Vxc...
<Band>  Solving the eigenvalue problem...
 KGrids1:  -0.43750  -0.31250  -0.18750  -0.06250   0.06250   0.18750   0.31250   0.43750 
 KGrids2:  -0.43750  -0.31250  -0.18750  -0.06250   0.06250   0.18750   0.31250   0.43750 
 KGrids3:   0.00000 
<Band_DFT>  Eigen, time=9.021756
<Band_DFT>  DM, time=0.000000
    1    C  MulP   1.9967  1.9967 sum   3.9934
    2    C  MulP   1.9949  1.9949 sum   3.9898
    3    C  MulP   1.9958  1.9958 sum   3.9915
    4    C  MulP   2.0011  2.0011 sum   4.0023
    5    C  MulP   1.9988  1.9988 sum   3.9977
    6    C  MulP   1.9981  1.9981 sum   3.9963
    7    C  MulP   1.9975  1.9975 sum   3.9950
    8    C  MulP   1.9996  1.9996 sum   3.9992
    9    C  MulP   1.9918  1.9918 sum   3.9836
   10    C  MulP   1.9715  1.9715 sum   3.9431
   11    C  MulP   1.9621  1.9621 sum   3.9242
   12    C  MulP   1.9823  1.9823 sum   3.9645
   13    C  MulP   2.0100  2.0100 sum   4.0200
   14    C  MulP   2.0017  2.0017 sum   4.0034
   15    C  MulP   1.9991  1.9991 sum   3.9983
   16    C  MulP   1.9977  1.9977 sum   3.9953
   17    C  MulP   1.9891  1.9891 sum   3.9783
   18    C  MulP   1.9673  1.9673 sum   3.9346
   19    C  MulP   2.3240  2.3240 sum   4.6480
   20    C  MulP   2.0381  2.0381 sum   4.0762
     ..........
     ......

 Sum of MulP: up   =   216.00000 down          =   216.00000
              total=   432.00000 ideal(neutral)=   432.00000
<DFT>  Total Spin Moment (muB) =  0.000000000000
<DFT>  Mixing_weight= 0.102403267203
<DFT>  Uele   = -205.154795699810  dUele     =   1.433658212388
<DFT>  NormRD =    2.368923699723  Criterion =   0.000000010000

******************* MD= 1  SCF=10 *******************
<Poisson>  Poisson's equation using FFT...
<Set_Hamiltonian>  Hamiltonian matrix for VNA+dVH+Vxc...
<Band>  Solving the eigenvalue problem...
 KGrids1:  -0.43750  -0.31250  -0.18750  -0.06250   0.06250   0.18750   0.31250   0.43750 
 KGrids2:  -0.43750  -0.31250  -0.18750  -0.06250   0.06250   0.18750   0.31250   0.43750 
 KGrids3:   0.00000 
<Band_DFT>  Eigen, time=9.029520
<Band_DFT>  DM, time=0.000001
    1    C  MulP   1.9967  1.9967 sum   3.9934
    2    C  MulP   1.9943  1.9943 sum   3.9885
    3    C  MulP   1.9936  1.9936 sum   3.9873
    4    C  MulP   1.9968  1.9968 sum   3.9936
    5    C  MulP   1.9992  1.9992 sum   3.9985
    6    C  MulP   1.9971  1.9971 sum   3.9941
    7    C  MulP   1.9973  1.9973 sum   3.9946
    8    C  MulP   1.9990  1.9990 sum   3.9979
    9    C  MulP   1.9940  1.9940 sum   3.9880
   10    C  MulP   1.9749  1.9749 sum   3.9498
   11    C  MulP   1.9742  1.9742 sum   3.9484
   12    C  MulP   1.9772  1.9772 sum   3.9544
   13    C  MulP   1.9954  1.9954 sum   3.9907
   14    C  MulP   1.9971  1.9971 sum   3.9942
   15    C  MulP   1.9993  1.9993 sum   3.9985
   16    C  MulP   1.9973  1.9973 sum   3.9946
   17    C  MulP   2.0023  2.0023 sum   4.0047
   18    C  MulP   2.0333  2.0333 sum   4.0667
   19    C  MulP   2.0648  2.0648 sum   4.1296
   20    C  MulP   2.0000  2.0000 sum   3.9999
     ..........
     ......

 Sum of MulP: up   =   216.00000 down          =   216.00000
              total=   432.00000 ideal(neutral)=   432.00000
<DFT>  Total Spin Moment (muB) =  0.000000000000
<DFT>  Mixing_weight= 0.115973436217
<DFT>  Uele   = -205.422465666177  dUele     =   0.267669966367
<DFT>  NormRD =    0.810334703769  Criterion =   0.000000010000

******************* MD= 1  SCF=11 *******************
<Poisson>  Poisson's equation using FFT...
<Set_Hamiltonian>  Hamiltonian matrix for VNA+dVH+Vxc...
<Band>  Solving the eigenvalue problem...
 KGrids1:  -0.43750  -0.31250  -0.18750  -0.06250   0.06250   0.18750   0.31250   0.43750 
 KGrids2:  -0.43750  -0.31250  -0.18750  -0.06250   0.06250   0.18750   0.31250   0.43750 
 KGrids3:   0.00000 
<Band_DFT>  Eigen, time=9.034150
<Band_DFT>  DM, time=0.000000
    1    C  MulP   1.9973  1.9973 sum   3.9947
    2    C  MulP   1.9939  1.9939 sum   3.9878
    3    C  MulP   1.9941  1.9941 sum   3.9882
    4    C  MulP   1.9969  1.9969 sum   3.9938
    5    C  MulP   1.9993  1.9993 sum   3.9986
    6    C  MulP   1.9974  1.9974 sum   3.9948
    7    C  MulP   1.9976  1.9976 sum   3.9952
    8    C  MulP   1.9990  1.9990 sum   3.9980
    9    C  MulP   1.9952  1.9952 sum   3.9905
   10    C  MulP   1.9763  1.9763 sum   3.9526
   11    C  MulP   1.9744  1.9744 sum   3.9488
   12    C  MulP   1.9761  1.9761 sum   3.9521
   13    C  MulP   1.9950  1.9950 sum   3.9900
   14    C  MulP   1.9974  1.9974 sum   3.9948
   15    C  MulP   1.9993  1.9993 sum   3.9985
   16    C  MulP   1.9977  1.9977 sum   3.9953
   17    C  MulP   2.0031  2.0031 sum   4.0063
   18    C  MulP   2.0567  2.0567 sum   4.1133
   19    C  MulP   2.0467  2.0467 sum   4.0934
   20    C  MulP   2.0004  2.0004 sum   4.0008
     ..........
     ......

 Sum of MulP: up   =   216.00000 down          =   216.00000
              total=   432.00000 ideal(neutral)=   432.00000
<DFT>  Total Spin Moment (muB) =  0.000000000000
<DFT>  Mixing_weight= 0.300000000000
<DFT>  Uele   = -205.788795893092  dUele     =   0.366330226915
<DFT>  NormRD =    0.693185947072  Criterion =   0.000000010000

******************* MD= 1  SCF=12 *******************
<Poisson>  Poisson's equation using FFT...
<Set_Hamiltonian>  Hamiltonian matrix for VNA+dVH+Vxc...
<Band>  Solving the eigenvalue problem...
 KGrids1:  -0.43750  -0.31250  -0.18750  -0.06250   0.06250   0.18750   0.31250   0.43750 
 KGrids2:  -0.43750  -0.31250  -0.18750  -0.06250   0.06250   0.18750   0.31250   0.43750 
 KGrids3:   0.00000 
<Band_DFT>  Eigen, time=9.017134
<Band_DFT>  DM, time=0.000000
    1    C  MulP   1.9978  1.9978 sum   3.9956
    2    C  MulP   1.9940  1.9940 sum   3.9881
    3    C  MulP   1.9943  1.9943 sum   3.9886
    4    C  MulP   1.9975  1.9975 sum   3.9950
    5    C  MulP   1.9993  1.9993 sum   3.9987
    6    C  MulP   1.9978  1.9978 sum   3.9957
    7    C  MulP   1.9980  1.9980 sum   3.9961
    8    C  MulP   1.9992  1.9992 sum   3.9984
    9    C  MulP   1.9955  1.9955 sum   3.9909
   10    C  MulP   1.9763  1.9763 sum   3.9525
   11    C  MulP   1.9743  1.9743 sum   3.9487
   12    C  MulP   1.9761  1.9761 sum   3.9522
   13    C  MulP   1.9956  1.9956 sum   3.9913
   14    C  MulP   1.9980  1.9980 sum   3.9961
   15    C  MulP   1.9993  1.9993 sum   3.9986
   16    C  MulP   1.9980  1.9980 sum   3.9961
   17    C  MulP   2.0030  2.0030 sum   4.0060
   18    C  MulP   2.0537  2.0537 sum   4.1073
   19    C  MulP   2.0498  2.0498 sum   4.0996
   20    C  MulP   2.0030  2.0030 sum   4.0061
     ..........
     ......

 Sum of MulP: up   =   216.00000 down          =   216.00000
              total=   432.00000 ideal(neutral)=   432.00000
<DFT>  Total Spin Moment (muB) =  0.000000000000
<DFT>  Mixing_weight= 0.300000000000
<DFT>  Uele   = -206.633877263253  dUele     =   0.845081370161
<DFT>  NormRD =    0.481006694517  Criterion =   0.000000010000

******************* MD= 1  SCF=13 *******************
<Poisson>  Poisson's equation using FFT...
<Set_Hamiltonian>  Hamiltonian matrix for VNA+dVH+Vxc...
<Band>  Solving the eigenvalue problem...
 KGrids1:  -0.43750  -0.31250  -0.18750  -0.06250   0.06250   0.18750   0.31250   0.43750 
 KGrids2:  -0.43750  -0.31250  -0.18750  -0.06250   0.06250   0.18750   0.31250   0.43750 
 KGrids3:   0.00000 
<Band_DFT>  Eigen, time=9.031246
<Band_DFT>  DM, time=0.000000
    1    C  MulP   1.9979  1.9979 sum   3.9957
    2    C  MulP   1.9942  1.9942 sum   3.9884
    3    C  MulP   1.9942  1.9942 sum   3.9884
    4    C  MulP   1.9975  1.9975 sum   3.9950
    5    C  MulP   1.9994  1.9994 sum   3.9988
    6    C  MulP   1.9979  1.9979 sum   3.9958
    7    C  MulP   1.9981  1.9981 sum   3.9963
    8    C  MulP   1.9992  1.9992 sum   3.9984
    9    C  MulP   1.9957  1.9957 sum   3.9914
   10    C  MulP   1.9761  1.9761 sum   3.9523
   11    C  MulP   1.9743  1.9743 sum   3.9486
   12    C  MulP   1.9760  1.9760 sum   3.9520
   13    C  MulP   1.9951  1.9951 sum   3.9902
   14    C  MulP   1.9980  1.9980 sum   3.9960
   15    C  MulP   1.9994  1.9994 sum   3.9988
   16    C  MulP   1.9982  1.9982 sum   3.9963
   17    C  MulP   2.0042  2.0042 sum   4.0084
   18    C  MulP   2.0577  2.0577 sum   4.1155
   19    C  MulP   2.0391  2.0391 sum   4.0781
   20    C  MulP   2.0018  2.0018 sum   4.0037
     ..........
     ......

 Sum of MulP: up   =   216.00000 down          =   216.00000
              total=   432.00000 ideal(neutral)=   432.00000
<DFT>  Total Spin Moment (muB) =  0.000000000000
<DFT>  Mixing_weight= 0.300000000000
<DFT>  Uele   = -207.252205573186  dUele     =   0.618328309933
<DFT>  NormRD =    0.341138501122  Criterion =   0.000000010000

******************* MD= 1  SCF=14 *******************
<Poisson>  Poisson's equation using FFT...
<Set_Hamiltonian>  Hamiltonian matrix for VNA+dVH+Vxc...
<Band>  Solving the eigenvalue problem...
 KGrids1:  -0.43750  -0.31250  -0.18750  -0.06250   0.06250   0.18750   0.31250   0.43750 
 KGrids2:  -0.43750  -0.31250  -0.18750  -0.06250   0.06250   0.18750   0.31250   0.43750 
 KGrids3:   0.00000 
<Band_DFT>  Eigen, time=9.014889
<Band_DFT>  DM, time=0.000001
    1    C  MulP   1.9978  1.9978 sum   3.9956
    2    C  MulP   1.9940  1.9940 sum   3.9880
    3    C  MulP   1.9945  1.9945 sum   3.9890
    4    C  MulP   1.9977  1.9977 sum   3.9954
    5    C  MulP   1.9994  1.9994 sum   3.9988
    6    C  MulP   1.9980  1.9980 sum   3.9960
    7    C  MulP   1.9981  1.9981 sum   3.9962
    8    C  MulP   1.9993  1.9993 sum   3.9986
    9    C  MulP   1.9952  1.9952 sum   3.9903
   10    C  MulP   1.9761  1.9761 sum   3.9522
   11    C  MulP   1.9738  1.9738 sum   3.9476
   12    C  MulP   1.9763  1.9763 sum   3.9525
   13    C  MulP   1.9963  1.9963 sum   3.9926
   14    C  MulP   1.9983  1.9983 sum   3.9966
   15    C  MulP   1.9995  1.9995 sum   3.9989
   16    C  MulP   1.9980  1.9980 sum   3.9961
   17    C  MulP   2.0018  2.0018 sum   4.0036
   18    C  MulP   2.0464  2.0464 sum   4.0928
   19    C  MulP   2.0615  2.0615 sum   4.1230
   20    C  MulP   2.0049  2.0049 sum   4.0099
     ..........
     ......

 Sum of MulP: up   =   216.00000 down          =   216.00000
              total=   432.00000 ideal(neutral)=   432.00000
<DFT>  Total Spin Moment (muB) =  0.000000000000
<DFT>  Mixing_weight= 0.300000000000
<DFT>  Uele   = -207.729494084341  dUele     =   0.477288511155
<DFT>  NormRD =    0.277030354823  Criterion =   0.000000010000

******************* MD= 1  SCF=15 *******************
<Poisson>  Poisson's equation using FFT...
<Set_Hamiltonian>  Hamiltonian matrix for VNA+dVH+Vxc...
<Band>  Solving the eigenvalue problem...
 KGrids1:  -0.43750  -0.31250  -0.18750  -0.06250   0.06250   0.18750   0.31250   0.43750 
 KGrids2:  -0.43750  -0.31250  -0.18750  -0.06250   0.06250   0.18750   0.31250   0.43750 
 KGrids3:   0.00000 
<Band_DFT>  Eigen, time=9.021193
<Band_DFT>  DM, time=0.000001
    1    C  MulP   1.9982  1.9982 sum   3.9964
    2    C  MulP   1.9944  1.9944 sum   3.9889
    3    C  MulP   1.9940  1.9940 sum   3.9881
    4    C  MulP   1.9975  1.9975 sum   3.9950
    5    C  MulP   1.9995  1.9995 sum   3.9990
    6    C  MulP   1.9980  1.9980 sum   3.9960
    7    C  MulP   1.9983  1.9983 sum   3.9967
    8    C  MulP   1.9993  1.9993 sum   3.9985
    9    C  MulP   1.9967  1.9967 sum   3.9933
   10    C  MulP   1.9765  1.9765 sum   3.9530
   11    C  MulP   1.9746  1.9746 sum   3.9491
   12    C  MulP   1.9757  1.9757 sum   3.9514
   13    C  MulP   1.9940  1.9940 sum   3.9880
   14    C  MulP   1.9979  1.9979 sum   3.9958
   15    C  MulP   1.9995  1.9995 sum   3.9990
   16    C  MulP   1.9985  1.9985 sum   3.9970
   17    C  MulP   2.0071  2.0071 sum   4.0143
   18    C  MulP   2.0736  2.0736 sum   4.1472
   19    C  MulP   2.0130  2.0130 sum   4.0260
   20    C  MulP   1.9987  1.9987 sum   3.9975
     ..........
     ......

 Sum of MulP: up   =   216.00000 down          =   216.00000
              total=   432.00000 ideal(neutral)=   432.00000
<DFT>  Total Spin Moment (muB) =  0.000000000000
<DFT>  Mixing_weight= 0.030000000000
<DFT>  Uele   = -208.104100276380  dUele     =   0.374606192040
<DFT>  NormRD =    0.360633801871  Criterion =   0.000000010000

******************* MD= 1  SCF=16 *******************
<Poisson>  Poisson's equation using FFT...
<Set_Hamiltonian>  Hamiltonian matrix for VNA+dVH+Vxc...
<Band>  Solving the eigenvalue problem...
 KGrids1:  -0.43750  -0.31250  -0.18750  -0.06250   0.06250   0.18750   0.31250   0.43750 
 KGrids2:  -0.43750  -0.31250  -0.18750  -0.06250   0.06250   0.18750   0.31250   0.43750 
 KGrids3:   0.00000 
<Band_DFT>  Eigen, time=9.023759
<Band_DFT>  DM, time=0.000000
    1    C  MulP   1.9979  1.9979 sum   3.9959
    2    C  MulP   1.9944  1.9944 sum   3.9888
    3    C  MulP   1.9948  1.9948 sum   3.9895
    4    C  MulP   1.9985  1.9985 sum   3.9971
    5    C  MulP   1.9999  1.9999 sum   3.9998
    6    C  MulP   1.9985  1.9985 sum   3.9970
    7    C  MulP   1.9985  1.9985 sum   3.9969
    8    C  MulP   1.9995  1.9995 sum   3.9990
    9    C  MulP   1.9947  1.9947 sum   3.9894
   10    C  MulP   1.9754  1.9754 sum   3.9508
   11    C  MulP   1.9731  1.9731 sum   3.9463
   12    C  MulP   1.9770  1.9770 sum   3.9540
   13    C  MulP   1.9974  1.9974 sum   3.9949
   14    C  MulP   1.9990  1.9990 sum   3.9981
   15    C  MulP   1.9998  1.9998 sum   3.9995
   16    C  MulP   1.9982  1.9982 sum   3.9965
   17    C  MulP   2.0009  2.0009 sum   4.0019
   18    C  MulP   2.0324  2.0324 sum   4.0647
   19    C  MulP   2.0660  2.0660 sum   4.1321
   20    C  MulP   2.0064  2.0064 sum   4.0129
     ..........
     ......

 Sum of MulP: up   =   216.00000 down          =   216.00000
              total=   432.00000 ideal(neutral)=   432.00000
<DFT>  Total Spin Moment (muB) =  0.000000000000
<DFT>  Mixing_weight= 0.030000000000
<DFT>  Uele   = -209.188002111941  dUele     =   1.083901835561
<DFT>  NormRD =    0.235441662849  Criterion =   0.000000010000

******************* MD= 1  SCF=17 *******************
<Poisson>  Poisson's equation using FFT...
<Set_Hamiltonian>  Hamiltonian matrix for VNA+dVH+Vxc...
<Band>  Solving the eigenvalue problem...
 KGrids1:  -0.43750  -0.31250  -0.18750  -0.06250   0.06250   0.18750   0.31250   0.43750 
 KGrids2:  -0.43750  -0.31250  -0.18750  -0.06250   0.06250   0.18750   0.31250   0.43750 
 KGrids3:   0.00000 
<Band_DFT>  Eigen, time=9.044875
<Band_DFT>  DM, time=0.000000
    1    C  MulP   1.9991  1.9991 sum   3.9982
    2    C  MulP   1.9934  1.9934 sum   3.9867
    3    C  MulP   1.9945  1.9945 sum   3.9889
    4    C  MulP   1.9950  1.9950 sum   3.9900
    5    C  MulP   1.9984  1.9984 sum   3.9968
    6    C  MulP   1.9969  1.9969 sum   3.9938
    7    C  MulP   1.9977  1.9977 sum   3.9955
    8    C  MulP   1.9998  1.9998 sum   3.9995
    9    C  MulP   1.9992  1.9992 sum   3.9983
   10    C  MulP   1.9824  1.9824 sum   3.9649
   11    C  MulP   1.9759  1.9759 sum   3.9518
   12    C  MulP   1.9722  1.9722 sum   3.9444
   13    C  MulP   1.9925  1.9925 sum   3.9850
   14    C  MulP   1.9963  1.9963 sum   3.9925
   15    C  MulP   1.9994  1.9994 sum   3.9988
   16    C  MulP   1.9982  1.9982 sum   3.9965
   17    C  MulP   2.0065  2.0065 sum   4.0130
   18    C  MulP   2.1210  2.1210 sum   4.2419
   19    C  MulP   2.0258  2.0258 sum   4.0516
   20    C  MulP   1.9996  1.9996 sum   3.9991
     ..........
     ......

 Sum of MulP: up   =   216.00000 down          =   216.00000
              total=   432.00000 ideal(neutral)=   432.00000
<DFT>  Total Spin Moment (muB) =  0.000000000000
<DFT>  Mixing_weight= 0.030000000000
<DFT>  Uele   = -209.961759201080  dUele     =   0.773757089139
<DFT>  NormRD =    0.456632963003  Criterion =   0.000000010000

******************* MD= 1  SCF=18 *******************
<Poisson>  Poisson's equation using FFT...
<Set_Hamiltonian>  Hamiltonian matrix for VNA+dVH+Vxc...
<Band>  Solving the eigenvalue problem...
 KGrids1:  -0.43750  -0.31250  -0.18750  -0.06250   0.06250   0.18750   0.31250   0.43750 
 KGrids2:  -0.43750  -0.31250  -0.18750  -0.06250   0.06250   0.18750   0.31250   0.43750 
 KGrids3:   0.00000 
<Band_DFT>  Eigen, time=9.016555
<Band_DFT>  DM, time=0.000001
    1    C  MulP   1.9975  1.9975 sum   3.9950
    2    C  MulP   1.9941  1.9941 sum   3.9882
    3    C  MulP   1.9940  1.9940 sum   3.9880
    4    C  MulP   1.9968  1.9968 sum   3.9936
    5    C  MulP   1.9991  1.9991 sum   3.9981
    6    C  MulP   1.9975  1.9975 sum   3.9951
    7    C  MulP   1.9979  1.9979 sum   3.9957
    8    C  MulP   1.9993  1.9993 sum   3.9985
    9    C  MulP   1.9956  1.9956 sum   3.9911
   10    C  MulP   1.9757  1.9757 sum   3.9514
   11    C  MulP   1.9734  1.9734 sum   3.9468
   12    C  MulP   1.9756  1.9756 sum   3.9512
   13    C  MulP   1.9943  1.9943 sum   3.9886
   14    C  MulP   1.9973  1.9973 sum   3.9947
   15    C  MulP   1.9995  1.9995 sum   3.9989
   16    C  MulP   1.9981  1.9981 sum   3.9962
   17    C  MulP   2.0046  2.0046 sum   4.0092
   18    C  MulP   2.0543  2.0543 sum   4.1087
   19    C  MulP   2.0403  2.0403 sum   4.0807
   20    C  MulP   2.0013  2.0013 sum   4.0027
     ..........
     ......

 Sum of MulP: up   =   216.00000 down          =   216.00000
              total=   432.00000 ideal(neutral)=   432.00000
<DFT>  Total Spin Moment (muB) =  0.000000000000
<DFT>  Mixing_weight= 0.030000000000
<DFT>  Uele   = -210.187046698924  dUele     =   0.225287497844
<DFT>  NormRD =    0.099060767893  Criterion =   0.000000010000

******************* MD= 1  SCF=19 *******************
<Poisson>  Poisson's equation using FFT...
<Set_Hamiltonian>  Hamiltonian matrix for VNA+dVH+Vxc...
<Band>  Solving the eigenvalue problem...
 KGrids1:  -0.43750  -0.31250  -0.18750  -0.06250   0.06250   0.18750   0.31250   0.43750 
 KGrids2:  -0.43750  -0.31250  -0.18750  -0.06250   0.06250   0.18750   0.31250   0.43750 
 KGrids3:   0.00000 
<Band_DFT>  Eigen, time=9.007526
<Band_DFT>  DM, time=0.000000
    1    C  MulP   1.9983  1.9983 sum   3.9966
    2    C  MulP   1.9943  1.9943 sum   3.9885
    3    C  MulP   1.9944  1.9944 sum   3.9889
    4    C  MulP   1.9976  1.9976 sum   3.9953
    5    C  MulP   1.9995  1.9995 sum   3.9990
    6    C  MulP   1.9979  1.9979 sum   3.9957
    7    C  MulP   1.9981  1.9981 sum   3.9962
    8    C  MulP   1.9994  1.9994 sum   3.9988
    9    C  MulP   1.9964  1.9964 sum   3.9927
   10    C  MulP   1.9774  1.9774 sum   3.9549
   11    C  MulP   1.9757  1.9757 sum   3.9513
   12    C  MulP   1.9768  1.9768 sum   3.9535
   13    C  MulP   1.9954  1.9954 sum   3.9909
   14    C  MulP   1.9979  1.9979 sum   3.9958
   15    C  MulP   1.9995  1.9995 sum   3.9991
   16    C  MulP   1.9984  1.9984 sum   3.9967
   17    C  MulP   2.0044  2.0044 sum   4.0088
   18    C  MulP   2.0668  2.0668 sum   4.1337
   19    C  MulP   2.0498  2.0498 sum   4.0996
   20    C  MulP   2.0018  2.0018 sum   4.0037
     ..........
     ......

 Sum of MulP: up   =   216.00000 down          =   216.00000
              total=   432.00000 ideal(neutral)=   432.00000
<DFT>  Total Spin Moment (muB) =  0.000000000000
<DFT>  Mixing_weight= 0.030000000000
<DFT>  Uele   = -210.257263070331  dUele     =   0.070216371408
<DFT>  NormRD =    0.124917962493  Criterion =   0.000000010000

******************* MD= 1  SCF=20 *******************
<Poisson>  Poisson's equation using FFT...
<Set_Hamiltonian>  Hamiltonian matrix for VNA+dVH+Vxc...
<Band>  Solving the eigenvalue problem...
 KGrids1:  -0.43750  -0.31250  -0.18750  -0.06250   0.06250   0.18750   0.31250   0.43750 
 KGrids2:  -0.43750  -0.31250  -0.18750  -0.06250   0.06250   0.18750   0.31250   0.43750 
 KGrids3:   0.00000 
<Band_DFT>  Eigen, time=9.046558
<Band_DFT>  DM, time=0.000000
    1    C  MulP   1.9982  1.9982 sum   3.9964
    2    C  MulP   1.9944  1.9944 sum   3.9888
    3    C  MulP   1.9946  1.9946 sum   3.9892
    4    C  MulP   1.9979  1.9979 sum   3.9959
    5    C  MulP   1.9997  1.9997 sum   3.9995
    6    C  MulP   1.9984  1.9984 sum   3.9968
    7    C  MulP   1.9986  1.9986 sum   3.9971
    8    C  MulP   1.9996  1.9996 sum   3.9991
    9    C  MulP   1.9957  1.9957 sum   3.9915
   10    C  MulP   1.9763  1.9763 sum   3.9525
   11    C  MulP   1.9738  1.9738 sum   3.9476
   12    C  MulP   1.9760  1.9760 sum   3.9519
   13    C  MulP   1.9956  1.9956 sum   3.9911
   14    C  MulP   1.9985  1.9985 sum   3.9969
   15    C  MulP   1.9997  1.9997 sum   3.9993
   16    C  MulP   1.9985  1.9985 sum   3.9969
   17    C  MulP   2.0036  2.0036 sum   4.0071
   18    C  MulP   2.0499  2.0499 sum   4.0998
   19    C  MulP   2.0383  2.0383 sum   4.0766
   20    C  MulP   2.0026  2.0026 sum   4.0052
     ..........
     ......

 Sum of MulP: up   =   216.00000 down          =   216.00000
              total=   432.00000 ideal(neutral)=   432.00000
<DFT>  Total Spin Moment (muB) =  0.000000000000
<DFT>  Mixing_weight= 0.030000000000
<DFT>  Uele   = -210.265603523372  dUele     =   0.008340453040
<DFT>  NormRD =    0.044318602961  Criterion =   0.000000010000

******************* MD= 1  SCF=21 *******************
<Poisson>  Poisson's equation using FFT...
<Set_Hamiltonian>  Hamiltonian matrix for VNA+dVH+Vxc...
<Band>  Solving the eigenvalue problem...
 KGrids1:  -0.43750  -0.31250  -0.18750  -0.06250   0.06250   0.18750   0.31250   0.43750 
 KGrids2:  -0.43750  -0.31250  -0.18750  -0.06250   0.06250   0.18750   0.31250   0.43750 
 KGrids3:   0.00000 
<Band_DFT>  Eigen, time=9.014809
<Band_DFT>  DM, time=0.000001
    1    C  MulP   1.9981  1.9981 sum   3.9963
    2    C  MulP   1.9944  1.9944 sum   3.9887
    3    C  MulP   1.9945  1.9945 sum   3.9890
    4    C  MulP   1.9980  1.9980 sum   3.9959
    5    C  MulP   1.9997  1.9997 sum   3.9994
    6    C  MulP   1.9981  1.9981 sum   3.9962
    7    C  MulP   1.9983  1.9983 sum   3.9966
    8    C  MulP   1.9995  1.9995 sum   3.9990
    9    C  MulP   1.9962  1.9962 sum   3.9923
   10    C  MulP   1.9763  1.9763 sum   3.9527
   11    C  MulP   1.9731  1.9731 sum   3.9463
   12    C  MulP   1.9763  1.9763 sum   3.9526
   13    C  MulP   1.9961  1.9961 sum   3.9923
   14    C  MulP   1.9986  1.9986 sum   3.9971
   15    C  MulP   1.9997  1.9997 sum   3.9994
   16    C  MulP   1.9984  1.9984 sum   3.9969
   17    C  MulP   2.0044  2.0044 sum   4.0088
   18    C  MulP   2.0614  2.0614 sum   4.1228
   19    C  MulP   2.0483  2.0483 sum   4.0967
   20    C  MulP   2.0038  2.0038 sum   4.0076
     ..........
     ......

 Sum of MulP: up   =   216.00000 down          =   216.00000
              total=   432.00000 ideal(neutral)=   432.00000
<DFT>  Total Spin Moment (muB) =  0.000000000000
<DFT>  Mixing_weight= 0.030000000000
<DFT>  Uele   = -210.281032316865  dUele     =   0.015428793494
<DFT>  NormRD =    0.071301900645  Criterion =   0.000000010000

******************* MD= 1  SCF=22 *******************
<Poisson>  Poisson's equation using FFT...
<Set_Hamiltonian>  Hamiltonian matrix for VNA+dVH+Vxc...
<Band>  Solving the eigenvalue problem...
 KGrids1:  -0.43750  -0.31250  -0.18750  -0.06250   0.06250   0.18750   0.31250   0.43750 
 KGrids2:  -0.43750  -0.31250  -0.18750  -0.06250   0.06250   0.18750   0.31250   0.43750 
 KGrids3:   0.00000 
<Band_DFT>  Eigen, time=9.014353
<Band_DFT>  DM, time=0.000000
    1    C  MulP   1.9978  1.9978 sum   3.9957
    2    C  MulP   1.9943  1.9943 sum   3.9886
    3    C  MulP   1.9944  1.9944 sum   3.9887
    4    C  MulP   1.9977  1.9977 sum   3.9955
    5    C  MulP   1.9995  1.9995 sum   3.9990
    6    C  MulP   1.9980  1.9980 sum   3.9960
    7    C  MulP   1.9982  1.9982 sum   3.9964
    8    C  MulP   1.9994  1.9994 sum   3.9987
    9    C  MulP   1.9955  1.9955 sum   3.9910
   10    C  MulP   1.9761  1.9761 sum   3.9522
   11    C  MulP   1.9741  1.9741 sum   3.9481
   12    C  MulP   1.9765  1.9765 sum   3.9530
   13    C  MulP   1.9959  1.9959 sum   3.9917
   14    C  MulP   1.9983  1.9983 sum   3.9966
   15    C  MulP   1.9996  1.9996 sum   3.9993
   16    C  MulP   1.9981  1.9981 sum   3.9963
   17    C  MulP   2.0034  2.0034 sum   4.0068
   18    C  MulP   2.0518  2.0518 sum   4.1036
   19    C  MulP   2.0470  2.0470 sum   4.0939
   20    C  MulP   2.0036  2.0036 sum   4.0072
     ..........
     ......

 Sum of MulP: up   =   216.00000 down          =   216.00000
              total=   432.00000 ideal(neutral)=   432.00000
<DFT>  Total Spin Moment (muB) =  0.000000000000
<DFT>  Mixing_weight= 0.030000000000
<DFT>  Uele   = -210.265453777088  dUele     =   0.015578539777
<DFT>  NormRD =    0.022009050287  Criterion =   0.000000010000

******************* MD= 1  SCF=23 *******************
<Poisson>  Poisson's equation using FFT...
<Set_Hamiltonian>  Hamiltonian matrix for VNA+dVH+Vxc...
<Band>  Solving the eigenvalue problem...
 KGrids1:  -0.43750  -0.31250  -0.18750  -0.06250   0.06250   0.18750   0.31250   0.43750 
 KGrids2:  -0.43750  -0.31250  -0.18750  -0.06250   0.06250   0.18750   0.31250   0.43750 
 KGrids3:   0.00000 
<Band_DFT>  Eigen, time=9.027763
<Band_DFT>  DM, time=0.000000
    1    C  MulP   1.9980  1.9980 sum   3.9961
    2    C  MulP   1.9943  1.9943 sum   3.9886
    3    C  MulP   1.9944  1.9944 sum   3.9889
    4    C  MulP   1.9977  1.9977 sum   3.9954
    5    C  MulP   1.9995  1.9995 sum   3.9991
    6    C  MulP   1.9981  1.9981 sum   3.9961
    7    C  MulP   1.9983  1.9983 sum   3.9965
    8    C  MulP   1.9995  1.9995 sum   3.9989
    9    C  MulP   1.9957  1.9957 sum   3.9913
   10    C  MulP   1.9764  1.9764 sum   3.9527
   11    C  MulP   1.9740  1.9740 sum   3.9480
   12    C  MulP   1.9762  1.9762 sum   3.9524
   13    C  MulP   1.9957  1.9957 sum   3.9914
   14    C  MulP   1.9982  1.9982 sum   3.9964
   15    C  MulP   1.9996  1.9996 sum   3.9993
   16    C  MulP   1.9983  1.9983 sum   3.9966
   17    C  MulP   2.0036  2.0036 sum   4.0071
   18    C  MulP   2.0520  2.0520 sum   4.1041
   19    C  MulP   2.0461  2.0461 sum   4.0921
   20    C  MulP   2.0032  2.0032 sum   4.0065
     ..........
     ......

 Sum of MulP: up   =   216.00000 down          =   216.00000
              total=   432.00000 ideal(neutral)=   432.00000
<DFT>  Total Spin Moment (muB) =  0.000000000000
<DFT>  Mixing_weight= 0.030000000000
<DFT>  Uele   = -210.272022102289  dUele     =   0.006568325201
<DFT>  NormRD =    0.014110423249  Criterion =   0.000000010000

******************* MD= 1  SCF=24 *******************
<Poisson>  Poisson's equation using FFT...
<Set_Hamiltonian>  Hamiltonian matrix for VNA+dVH+Vxc...
<Band>  Solving the eigenvalue problem...
 KGrids1:  -0.43750  -0.31250  -0.18750  -0.06250   0.06250   0.18750   0.31250   0.43750 
 KGrids2:  -0.43750  -0.31250  -0.18750  -0.06250   0.06250   0.18750   0.31250   0.43750 
 KGrids3:   0.00000 
<Band_DFT>  Eigen, time=9.015951
<Band_DFT>  DM, time=0.000001
    1    C  MulP   1.9981  1.9981 sum   3.9962
    2    C  MulP   1.9943  1.9943 sum   3.9886
    3    C  MulP   1.9945  1.9945 sum   3.9890
    4    C  MulP   1.9977  1.9977 sum   3.9955
    5    C  MulP   1.9996  1.9996 sum   3.9992
    6    C  MulP   1.9981  1.9981 sum   3.9963
    7    C  MulP   1.9983  1.9983 sum   3.9967
    8    C  MulP   1.9995  1.9995 sum   3.9990
    9    C  MulP   1.9958  1.9958 sum   3.9916
   10    C  MulP   1.9764  1.9764 sum   3.9528
   11    C  MulP   1.9739  1.9739 sum   3.9478
   12    C  MulP   1.9761  1.9761 sum   3.9522
   13    C  MulP   1.9956  1.9956 sum   3.9912
   14    C  MulP   1.9982  1.9982 sum   3.9965
   15    C  MulP   1.9996  1.9996 sum   3.9993
   16    C  MulP   1.9984  1.9984 sum   3.9968
   17    C  MulP   2.0038  2.0038 sum   4.0076
   18    C  MulP   2.0536  2.0536 sum   4.1072
   19    C  MulP   2.0438  2.0438 sum   4.0876
   20    C  MulP   2.0029  2.0029 sum   4.0058
     ..........
     ......

 Sum of MulP: up   =   216.00000 down          =   216.00000
              total=   432.00000 ideal(neutral)=   432.00000
<DFT>  Total Spin Moment (muB) =  0.000000000000
<DFT>  Mixing_weight= 0.030000000000
<DFT>  Uele   = -210.278121546471  dUele     =   0.006099444181
<DFT>  NormRD =    0.013223835875  Criterion =   0.000000010000

******************* MD= 1  SCF=25 *******************
<Poisson>  Poisson's equation using FFT...
<Set_Hamiltonian>  Hamiltonian matrix for VNA+dVH+Vxc...
<Band>  Solving the eigenvalue problem...
 KGrids1:  -0.43750  -0.31250  -0.18750  -0.06250   0.06250   0.18750   0.31250   0.43750 
 KGrids2:  -0.43750  -0.31250  -0.18750  -0.06250   0.06250   0.18750   0.31250   0.43750 
 KGrids3:   0.00000 
<Band_DFT>  Eigen, time=9.006222
<Band_DFT>  DM, time=0.000001
    1    C  MulP   1.9981  1.9981 sum   3.9962
    2    C  MulP   1.9944  1.9944 sum   3.9887
    3    C  MulP   1.9945  1.9945 sum   3.9890
    4    C  MulP   1.9978  1.9978 sum   3.9957
    5    C  MulP   1.9996  1.9996 sum   3.9992
    6    C  MulP   1.9982  1.9982 sum   3.9963
    7    C  MulP   1.9983  1.9983 sum   3.9967
    8    C  MulP   1.9995  1.9995 sum   3.9990
    9    C  MulP   1.9958  1.9958 sum   3.9916
   10    C  MulP   1.9763  1.9763 sum   3.9526
   11    C  MulP   1.9740  1.9740 sum   3.9479
   12    C  MulP   1.9763  1.9763 sum   3.9526
   13    C  MulP   1.9957  1.9957 sum   3.9914
   14    C  MulP   1.9983  1.9983 sum   3.9966
   15    C  MulP   1.9996  1.9996 sum   3.9993
   16    C  MulP   1.9984  1.9984 sum   3.9968
   17    C  MulP   2.0037  2.0037 sum   4.0075
   18    C  MulP   2.0532  2.0532 sum   4.1063
   19    C  MulP   2.0453  2.0453 sum   4.0906
   20    C  MulP   2.0030  2.0030 sum   4.0059
     ..........
     ......

 Sum of MulP: up   =   216.00000 down          =   216.00000
              total=   432.00000 ideal(neutral)=   432.00000
<DFT>  Total Spin Moment (muB) =  0.000000000000
<DFT>  Mixing_weight= 0.030000000000
<DFT>  Uele   = -210.280929877944  dUele     =   0.002808331473
<DFT>  NormRD =    0.005665916985  Criterion =   0.000000010000

******************* MD= 1  SCF=26 *******************
<Poisson>  Poisson's equation using FFT...
<Set_Hamiltonian>  Hamiltonian matrix for VNA+dVH+Vxc...
<Band>  Solving the eigenvalue problem...
 KGrids1:  -0.43750  -0.31250  -0.18750  -0.06250   0.06250   0.18750   0.31250   0.43750 
 KGrids2:  -0.43750  -0.31250  -0.18750  -0.06250   0.06250   0.18750   0.31250   0.43750 
 KGrids3:   0.00000 
<Band_DFT>  Eigen, time=9.022920
<Band_DFT>  DM, time=0.000000
    1    C  MulP   1.9980  1.9980 sum   3.9961
    2    C  MulP   1.9943  1.9943 sum   3.9886
    3    C  MulP   1.9945  1.9945 sum   3.9890
    4    C  MulP   1.9978  1.9978 sum   3.9957
    5    C  MulP   1.9996  1.9996 sum   3.9993
    6    C  MulP   1.9982  1.9982 sum   3.9963
    7    C  MulP   1.9983  1.9983 sum   3.9967
    8    C  MulP   1.9994  1.9994 sum   3.9989
    9    C  MulP   1.9957  1.9957 sum   3.9914
   10    C  MulP   1.9763  1.9763 sum   3.9526
   11    C  MulP   1.9739  1.9739 sum   3.9479
   12    C  MulP   1.9763  1.9763 sum   3.9525
   13    C  MulP   1.9958  1.9958 sum   3.9915
   14    C  MulP   1.9984  1.9984 sum   3.9967
   15    C  MulP   1.9996  1.9996 sum   3.9993
   16    C  MulP   1.9983  1.9983 sum   3.9966
   17    C  MulP   2.0036  2.0036 sum   4.0072
   18    C  MulP   2.0528  2.0528 sum   4.1056
   19    C  MulP   2.0452  2.0452 sum   4.0904
   20    C  MulP   2.0031  2.0031 sum   4.0062
     ..........
     ......

 Sum of MulP: up   =   216.00000 down          =   216.00000
              total=   432.00000 ideal(neutral)=   432.00000
<DFT>  Total Spin Moment (muB) =  0.000000000000
<DFT>  Mixing_weight= 0.030000000000
<DFT>  Uele   = -210.285146262634  dUele     =   0.004216384690
<DFT>  NormRD =    0.003571950336  Criterion =   0.000000010000

******************* MD= 1  SCF=27 *******************
<Poisson>  Poisson's equation using FFT...
<Set_Hamiltonian>  Hamiltonian matrix for VNA+dVH+Vxc...
<Band>  Solving the eigenvalue problem...
 KGrids1:  -0.43750  -0.31250  -0.18750  -0.06250   0.06250   0.18750   0.31250   0.43750 
 KGrids2:  -0.43750  -0.31250  -0.18750  -0.06250   0.06250   0.18750   0.31250   0.43750 
 KGrids3:   0.00000 
<Band_DFT>  Eigen, time=9.019810
<Band_DFT>  DM, time=0.000000
    1    C  MulP   1.9981  1.9981 sum   3.9961
    2    C  MulP   1.9943  1.9943 sum   3.9887
    3    C  MulP   1.9945  1.9945 sum   3.9890
    4    C  MulP   1.9978  1.9978 sum   3.9957
    5    C  MulP   1.9996  1.9996 sum   3.9993
    6    C  MulP   1.9982  1.9982 sum   3.9963
    7    C  MulP   1.9983  1.9983 sum   3.9967
    8    C  MulP   1.9995  1.9995 sum   3.9989
    9    C  MulP   1.9957  1.9957 sum   3.9915
   10    C  MulP   1.9763  1.9763 sum   3.9527
   11    C  MulP   1.9739  1.9739 sum   3.9479
   12    C  MulP   1.9763  1.9763 sum   3.9525
   13    C  MulP   1.9957  1.9957 sum   3.9915
   14    C  MulP   1.9983  1.9983 sum   3.9967
   15    C  MulP   1.9996  1.9996 sum   3.9993
   16    C  MulP   1.9983  1.9983 sum   3.9967
   17    C  MulP   2.0037  2.0037 sum   4.0073
   18    C  MulP   2.0534  2.0534 sum   4.1068
   19    C  MulP   2.0446  2.0446 sum   4.0892
   20    C  MulP   2.0031  2.0031 sum   4.0062
     ..........
     ......

 Sum of MulP: up   =   216.00000 down          =   216.00000
              total=   432.00000 ideal(neutral)=   432.00000
<DFT>  Total Spin Moment (muB) =  0.000000000000
<DFT>  Mixing_weight= 0.030000000000
<DFT>  Uele   = -210.286785090238  dUele     =   0.001638827605
<DFT>  NormRD =    0.001912780608  Criterion =   0.000000010000

******************* MD= 1  SCF=28 *******************
<Poisson>  Poisson's equation using FFT...
<Set_Hamiltonian>  Hamiltonian matrix for VNA+dVH+Vxc...
<Band>  Solving the eigenvalue problem...
 KGrids1:  -0.43750  -0.31250  -0.18750  -0.06250   0.06250   0.18750   0.31250   0.43750 
 KGrids2:  -0.43750  -0.31250  -0.18750  -0.06250   0.06250   0.18750   0.31250   0.43750 
 KGrids3:   0.00000 
<Band_DFT>  Eigen, time=9.008493
<Band_DFT>  DM, time=0.000000
    1    C  MulP   1.9981  1.9981 sum   3.9962
    2    C  MulP   1.9943  1.9943 sum   3.9887
    3    C  MulP   1.9945  1.9945 sum   3.9890
    4    C  MulP   1.9978  1.9978 sum   3.9956
    5    C  MulP   1.9996  1.9996 sum   3.9992
    6    C  MulP   1.9981  1.9981 sum   3.9963
    7    C  MulP   1.9983  1.9983 sum   3.9967
    8    C  MulP   1.9995  1.9995 sum   3.9990
    9    C  MulP   1.9958  1.9958 sum   3.9916
   10    C  MulP   1.9764  1.9764 sum   3.9527
   11    C  MulP   1.9739  1.9739 sum   3.9479
   12    C  MulP   1.9762  1.9762 sum   3.9525
   13    C  MulP   1.9957  1.9957 sum   3.9914
   14    C  MulP   1.9983  1.9983 sum   3.9966
   15    C  MulP   1.9996  1.9996 sum   3.9993
   16    C  MulP   1.9984  1.9984 sum   3.9967
   17    C  MulP   2.0037  2.0037 sum   4.0073
   18    C  MulP   2.0532  2.0532 sum   4.1065
   19    C  MulP   2.0448  2.0448 sum   4.0896
   20    C  MulP   2.0031  2.0031 sum   4.0062
     ..........
     ......

 Sum of MulP: up   =   216.00000 down          =   216.00000
              total=   432.00000 ideal(neutral)=   432.00000
<DFT>  Total Spin Moment (muB) =  0.000000000000
<DFT>  Mixing_weight= 0.030000000000
<DFT>  Uele   = -210.288766523867  dUele     =   0.001981433629
<DFT>  NormRD =    0.000947478145  Criterion =   0.000000010000

******************* MD= 1  SCF=29 *******************
<Poisson>  Poisson's equation using FFT...
<Set_Hamiltonian>  Hamiltonian matrix for VNA+dVH+Vxc...
<Band>  Solving the eigenvalue problem...
 KGrids1:  -0.43750  -0.31250  -0.18750  -0.06250   0.06250   0.18750   0.31250   0.43750 
 KGrids2:  -0.43750  -0.31250  -0.18750  -0.06250   0.06250   0.18750   0.31250   0.43750 
 KGrids3:   0.00000 
<Band_DFT>  Eigen, time=9.050362
<Band_DFT>  DM, time=0.000000
    1    C  MulP   1.9981  1.9981 sum   3.9962
    2    C  MulP   1.9943  1.9943 sum   3.9887
    3    C  MulP   1.9945  1.9945 sum   3.9890
    4    C  MulP   1.9978  1.9978 sum   3.9956
    5    C  MulP   1.9996  1.9996 sum   3.9992
    6    C  MulP   1.9982  1.9982 sum   3.9963
    7    C  MulP   1.9983  1.9983 sum   3.9967
    8    C  MulP   1.9995  1.9995 sum   3.9990
    9    C  MulP   1.9958  1.9958 sum   3.9915
   10    C  MulP   1.9763  1.9763 sum   3.9527
   11    C  MulP   1.9739  1.9739 sum   3.9479
   12    C  MulP   1.9762  1.9762 sum   3.9525
   13    C  MulP   1.9957  1.9957 sum   3.9915
   14    C  MulP   1.9983  1.9983 sum   3.9966
   15    C  MulP   1.9996  1.9996 sum   3.9993
   16    C  MulP   1.9984  1.9984 sum   3.9967
   17    C  MulP   2.0037  2.0037 sum   4.0074
   18    C  MulP   2.0532  2.0532 sum   4.1065
   19    C  MulP   2.0449  2.0449 sum   4.0898
   20    C  MulP   2.0031  2.0031 sum   4.0062
     ..........
     ......

 Sum of MulP: up   =   216.00000 down          =   216.00000
              total=   432.00000 ideal(neutral)=   432.00000
<DFT>  Total Spin Moment (muB) =  0.000000000000
<DFT>  Mixing_weight= 0.030000000000
<DFT>  Uele   = -210.289667800510  dUele     =   0.000901276643
<DFT>  NormRD =    0.001144913588  Criterion =   0.000000010000

******************* MD= 1  SCF=30 *******************
<Poisson>  Poisson's equation using FFT...
<Set_Hamiltonian>  Hamiltonian matrix for VNA+dVH+Vxc...
<Band>  Solving the eigenvalue problem...
 KGrids1:  -0.43750  -0.31250  -0.18750  -0.06250   0.06250   0.18750   0.31250   0.43750 
 KGrids2:  -0.43750  -0.31250  -0.18750  -0.06250   0.06250   0.18750   0.31250   0.43750 
 KGrids3:   0.00000 
<Band_DFT>  Eigen, time=9.038503
<Band_DFT>  DM, time=0.000001
    1    C  MulP   1.9981  1.9981 sum   3.9962
    2    C  MulP   1.9943  1.9943 sum   3.9887
    3    C  MulP   1.9945  1.9945 sum   3.9890
    4    C  MulP   1.9978  1.9978 sum   3.9956
    5    C  MulP   1.9996  1.9996 sum   3.9993
    6    C  MulP   1.9982  1.9982 sum   3.9963
    7    C  MulP   1.9983  1.9983 sum   3.9967
    8    C  MulP   1.9995  1.9995 sum   3.9989
    9    C  MulP   1.9958  1.9958 sum   3.9915
   10    C  MulP   1.9763  1.9763 sum   3.9527
   11    C  MulP   1.9739  1.9739 sum   3.9479
   12    C  MulP   1.9763  1.9763 sum   3.9525
   13    C  MulP   1.9957  1.9957 sum   3.9915
   14    C  MulP   1.9983  1.9983 sum   3.9966
   15    C  MulP   1.9996  1.9996 sum   3.9993
   16    C  MulP   1.9984  1.9984 sum   3.9967
   17    C  MulP   2.0037  2.0037 sum   4.0073
   18    C  MulP   2.0532  2.0532 sum   4.1063
   19    C  MulP   2.0448  2.0448 sum   4.0896
   20    C  MulP   2.0031  2.0031 sum   4.0062
     ..........
     ......

 Sum of MulP: up   =   216.00000 down          =   216.00000
              total=   432.00000 ideal(neutral)=   432.00000
<DFT>  Total Spin Moment (muB) =  0.000000000000
<DFT>  Mixing_weight= 0.030000000000
<DFT>  Uele   = -210.289168862391  dUele     =   0.000498938119
<DFT>  NormRD =    0.000376961604  Criterion =   0.000000010000

******************* MD= 1  SCF=31 *******************
<Poisson>  Poisson's equation using FFT...
<Set_Hamiltonian>  Hamiltonian matrix for VNA+dVH+Vxc...
<Band>  Solving the eigenvalue problem...
 KGrids1:  -0.43750  -0.31250  -0.18750  -0.06250   0.06250   0.18750   0.31250   0.43750 
 KGrids2:  -0.43750  -0.31250  -0.18750  -0.06250   0.06250   0.18750   0.31250   0.43750 
 KGrids3:   0.00000 
<Band_DFT>  Eigen, time=9.016946
<Band_DFT>  DM, time=0.000002
    1    C  MulP   1.9981  1.9981 sum   3.9962
    2    C  MulP   1.9943  1.9943 sum   3.9887
    3    C  MulP   1.9945  1.9945 sum   3.9890
    4    C  MulP   1.9978  1.9978 sum   3.9956
    5    C  MulP   1.9996  1.9996 sum   3.9993
    6    C  MulP   1.9982  1.9982 sum   3.9963
    7    C  MulP   1.9983  1.9983 sum   3.9967
    8    C  MulP   1.9995  1.9995 sum   3.9989
    9    C  MulP   1.9958  1.9958 sum   3.9915
   10    C  MulP   1.9763  1.9763 sum   3.9527
   11    C  MulP   1.9739  1.9739 sum   3.9479
   12    C  MulP   1.9763  1.9763 sum   3.9525
   13    C  MulP   1.9957  1.9957 sum   3.9915
   14    C  MulP   1.9983  1.9983 sum   3.9966
   15    C  MulP   1.9996  1.9996 sum   3.9993
   16    C  MulP   1.9983  1.9983 sum   3.9967
   17    C  MulP   2.0037  2.0037 sum   4.0073
   18    C  MulP   2.0532  2.0532 sum   4.1065
   19    C  MulP   2.0449  2.0449 sum   4.0898
   20    C  MulP   2.0031  2.0031 sum   4.0062
     ..........
     ......

 Sum of MulP: up   =   216.00000 down          =   216.00000
              total=   432.00000 ideal(neutral)=   432.00000
<DFT>  Total Spin Moment (muB) =  0.000000000000
<DFT>  Mixing_weight= 0.030000000000
<DFT>  Uele   = -210.289316334871  dUele     =   0.000147472480
<DFT>  NormRD =    0.000439034513  Criterion =   0.000000010000

******************* MD= 1  SCF=32 *******************
<Poisson>  Poisson's equation using FFT...
<Set_Hamiltonian>  Hamiltonian matrix for VNA+dVH+Vxc...
<Band>  Solving the eigenvalue problem...
 KGrids1:  -0.43750  -0.31250  -0.18750  -0.06250   0.06250   0.18750   0.31250   0.43750 
 KGrids2:  -0.43750  -0.31250  -0.18750  -0.06250   0.06250   0.18750   0.31250   0.43750 
 KGrids3:   0.00000 
<Band_DFT>  Eigen, time=9.018857
<Band_DFT>  DM, time=0.000001
    1    C  MulP   1.9981  1.9981 sum   3.9962
    2    C  MulP   1.9943  1.9943 sum   3.9887
    3    C  MulP   1.9945  1.9945 sum   3.9890
    4    C  MulP   1.9978  1.9978 sum   3.9956
    5    C  MulP   1.9996  1.9996 sum   3.9992
    6    C  MulP   1.9982  1.9982 sum   3.9963
    7    C  MulP   1.9983  1.9983 sum   3.9967
    8    C  MulP   1.9995  1.9995 sum   3.9990
    9    C  MulP   1.9958  1.9958 sum   3.9915
   10    C  MulP   1.9763  1.9763 sum   3.9527
   11    C  MulP   1.9739  1.9739 sum   3.9479
   12    C  MulP   1.9762  1.9762 sum   3.9525
   13    C  MulP   1.9957  1.9957 sum   3.9915
   14    C  MulP   1.9983  1.9983 sum   3.9966
   15    C  MulP   1.9996  1.9996 sum   3.9993
   16    C  MulP   1.9983  1.9983 sum   3.9967
   17    C  MulP   2.0037  2.0037 sum   4.0073
   18    C  MulP   2.0532  2.0532 sum   4.1064
   19    C  MulP   2.0449  2.0449 sum   4.0897
   20    C  MulP   2.0031  2.0031 sum   4.0062
     ..........
     ......

 Sum of MulP: up   =   216.00000 down          =   216.00000
              total=   432.00000 ideal(neutral)=   432.00000
<DFT>  Total Spin Moment (muB) =  0.000000000000
<DFT>  Mixing_weight= 0.030000000000
<DFT>  Uele   = -210.289265485752  dUele     =   0.000050849119
<DFT>  NormRD =    0.000077339001  Criterion =   0.000000010000

******************* MD= 1  SCF=33 *******************
<Poisson>  Poisson's equation using FFT...
<Set_Hamiltonian>  Hamiltonian matrix for VNA+dVH+Vxc...
<Band>  Solving the eigenvalue problem...
 KGrids1:  -0.43750  -0.31250  -0.18750  -0.06250   0.06250   0.18750   0.31250   0.43750 
 KGrids2:  -0.43750  -0.31250  -0.18750  -0.06250   0.06250   0.18750   0.31250   0.43750 
 KGrids3:   0.00000 
<Band_DFT>  Eigen, time=9.036866
<Band_DFT>  DM, time=0.000000
    1    C  MulP   1.9981  1.9981 sum   3.9962
    2    C  MulP   1.9943  1.9943 sum   3.9887
    3    C  MulP   1.9945  1.9945 sum   3.9890
    4    C  MulP   1.9978  1.9978 sum   3.9956
    5    C  MulP   1.9996  1.9996 sum   3.9992
    6    C  MulP   1.9982  1.9982 sum   3.9963
    7    C  MulP   1.9983  1.9983 sum   3.9967
    8    C  MulP   1.9995  1.9995 sum   3.9989
    9    C  MulP   1.9958  1.9958 sum   3.9915
   10    C  MulP   1.9763  1.9763 sum   3.9527
   11    C  MulP   1.9739  1.9739 sum   3.9479
   12    C  MulP   1.9763  1.9763 sum   3.9525
   13    C  MulP   1.9957  1.9957 sum   3.9915
   14    C  MulP   1.9983  1.9983 sum   3.9966
   15    C  MulP   1.9996  1.9996 sum   3.9993
   16    C  MulP   1.9984  1.9984 sum   3.9967
   17    C  MulP   2.0037  2.0037 sum   4.0073
   18    C  MulP   2.0532  2.0532 sum   4.1064
   19    C  MulP   2.0449  2.0449 sum   4.0897
   20    C  MulP   2.0031  2.0031 sum   4.0062
     ..........
     ......

 Sum of MulP: up   =   216.00000 down          =   216.00000
              total=   432.00000 ideal(neutral)=   432.00000
<DFT>  Total Spin Moment (muB) =  0.000000000000
<DFT>  Mixing_weight= 0.030000000000
<DFT>  Uele   = -210.289246498266  dUele     =   0.000018987486
<DFT>  NormRD =    0.000097082847  Criterion =   0.000000010000

******************* MD= 1  SCF=34 *******************
<Poisson>  Poisson's equation using FFT...
<Set_Hamiltonian>  Hamiltonian matrix for VNA+dVH+Vxc...
<Band>  Solving the eigenvalue problem...
 KGrids1:  -0.43750  -0.31250  -0.18750  -0.06250   0.06250   0.18750   0.31250   0.43750 
 KGrids2:  -0.43750  -0.31250  -0.18750  -0.06250   0.06250   0.18750   0.31250   0.43750 
 KGrids3:   0.00000 
<Band_DFT>  Eigen, time=9.007555
<Band_DFT>  DM, time=0.000000
    1    C  MulP   1.9981  1.9981 sum   3.9962
    2    C  MulP   1.9943  1.9943 sum   3.9887
    3    C  MulP   1.9945  1.9945 sum   3.9890
    4    C  MulP   1.9978  1.9978 sum   3.9956
    5    C  MulP   1.9996  1.9996 sum   3.9992
    6    C  MulP   1.9982  1.9982 sum   3.9963
    7    C  MulP   1.9983  1.9983 sum   3.9967
    8    C  MulP   1.9995  1.9995 sum   3.9989
    9    C  MulP   1.9958  1.9958 sum   3.9915
   10    C  MulP   1.9763  1.9763 sum   3.9527
   11    C  MulP   1.9739  1.9739 sum   3.9479
   12    C  MulP   1.9763  1.9763 sum   3.9525
   13    C  MulP   1.9957  1.9957 sum   3.9915
   14    C  MulP   1.9983  1.9983 sum   3.9966
   15    C  MulP   1.9996  1.9996 sum   3.9993
   16    C  MulP   1.9984  1.9984 sum   3.9967
   17    C  MulP   2.0037  2.0037 sum   4.0073
   18    C  MulP   2.0532  2.0532 sum   4.1064
   19    C  MulP   2.0449  2.0449 sum   4.0897
   20    C  MulP   2.0031  2.0031 sum   4.0062
     ..........
     ......

 Sum of MulP: up   =   216.00000 down          =   216.00000
              total=   432.00000 ideal(neutral)=   432.00000
<DFT>  Total Spin Moment (muB) =  0.000000000000
<DFT>  Mixing_weight= 0.030000000000
<DFT>  Uele   = -210.289238254146  dUele     =   0.000008244121
<DFT>  NormRD =    0.000035802174  Criterion =   0.000000010000

******************* MD= 1  SCF=35 *******************
<Poisson>  Poisson's equation using FFT...
<Set_Hamiltonian>  Hamiltonian matrix for VNA+dVH+Vxc...
<Band>  Solving the eigenvalue problem...
 KGrids1:  -0.43750  -0.31250  -0.18750  -0.06250   0.06250   0.18750   0.31250   0.43750 
 KGrids2:  -0.43750  -0.31250  -0.18750  -0.06250   0.06250   0.18750   0.31250   0.43750 
 KGrids3:   0.00000 
<Band_DFT>  Eigen, time=9.036602
<Band_DFT>  DM, time=0.000000
    1    C  MulP   1.9981  1.9981 sum   3.9962
    2    C  MulP   1.9943  1.9943 sum   3.9887
    3    C  MulP   1.9945  1.9945 sum   3.9890
    4    C  MulP   1.9978  1.9978 sum   3.9956
    5    C  MulP   1.9996  1.9996 sum   3.9992
    6    C  MulP   1.9982  1.9982 sum   3.9963
    7    C  MulP   1.9983  1.9983 sum   3.9967
    8    C  MulP   1.9995  1.9995 sum   3.9989
    9    C  MulP   1.9958  1.9958 sum   3.9915
   10    C  MulP   1.9763  1.9763 sum   3.9527
   11    C  MulP   1.9739  1.9739 sum   3.9479
   12    C  MulP   1.9763  1.9763 sum   3.9525
   13    C  MulP   1.9957  1.9957 sum   3.9915
   14    C  MulP   1.9983  1.9983 sum   3.9966
   15    C  MulP   1.9996  1.9996 sum   3.9993
   16    C  MulP   1.9984  1.9984 sum   3.9967
   17    C  MulP   2.0037  2.0037 sum   4.0073
   18    C  MulP   2.0532  2.0532 sum   4.1064
   19    C  MulP   2.0449  2.0449 sum   4.0897
   20    C  MulP   2.0031  2.0031 sum   4.0062
     ..........
     ......

 Sum of MulP: up   =   216.00000 down          =   216.00000
              total=   432.00000 ideal(neutral)=   432.00000
<DFT>  Total Spin Moment (muB) =  0.000000000000
<DFT>  Mixing_weight= 0.030000000000
<DFT>  Uele   = -210.289234516526  dUele     =   0.000003737620
<DFT>  NormRD =    0.000021770751  Criterion =   0.000000010000

******************* MD= 1  SCF=36 *******************
<Poisson>  Poisson's equation using FFT...
<Set_Hamiltonian>  Hamiltonian matrix for VNA+dVH+Vxc...
<Band>  Solving the eigenvalue problem...
 KGrids1:  -0.43750  -0.31250  -0.18750  -0.06250   0.06250   0.18750   0.31250   0.43750 
 KGrids2:  -0.43750  -0.31250  -0.18750  -0.06250   0.06250   0.18750   0.31250   0.43750 
 KGrids3:   0.00000 
<Band_DFT>  Eigen, time=9.034243
<Band_DFT>  DM, time=0.000001
    1    C  MulP   1.9981  1.9981 sum   3.9962
    2    C  MulP   1.9943  1.9943 sum   3.9887
    3    C  MulP   1.9945  1.9945 sum   3.9890
    4    C  MulP   1.9978  1.9978 sum   3.9956
    5    C  MulP   1.9996  1.9996 sum   3.9992
    6    C  MulP   1.9982  1.9982 sum   3.9963
    7    C  MulP   1.9983  1.9983 sum   3.9967
    8    C  MulP   1.9995  1.9995 sum   3.9989
    9    C  MulP   1.9958  1.9958 sum   3.9915
   10    C  MulP   1.9763  1.9763 sum   3.9527
   11    C  MulP   1.9739  1.9739 sum   3.9479
   12    C  MulP   1.9763  1.9763 sum   3.9525
   13    C  MulP   1.9957  1.9957 sum   3.9915
   14    C  MulP   1.9983  1.9983 sum   3.9966
   15    C  MulP   1.9996  1.9996 sum   3.9993
   16    C  MulP   1.9984  1.9984 sum   3.9967
   17    C  MulP   2.0037  2.0037 sum   4.0073
   18    C  MulP   2.0532  2.0532 sum   4.1064
   19    C  MulP   2.0449  2.0449 sum   4.0897
   20    C  MulP   2.0031  2.0031 sum   4.0062
     ..........
     ......

 Sum of MulP: up   =   216.00000 down          =   216.00000
              total=   432.00000 ideal(neutral)=   432.00000
<DFT>  Total Spin Moment (muB) =  0.000000000000
<DFT>  Mixing_weight= 0.030000000000
<DFT>  Uele   = -210.289233104781  dUele     =   0.000001411745
<DFT>  NormRD =    0.000006216155  Criterion =   0.000000010000

******************* MD= 1  SCF=37 *******************
<Poisson>  Poisson's equation using FFT...
<Set_Hamiltonian>  Hamiltonian matrix for VNA+dVH+Vxc...
<Band>  Solving the eigenvalue problem...
 KGrids1:  -0.43750  -0.31250  -0.18750  -0.06250   0.06250   0.18750   0.31250   0.43750 
 KGrids2:  -0.43750  -0.31250  -0.18750  -0.06250   0.06250   0.18750   0.31250   0.43750 
 KGrids3:   0.00000 
<Band_DFT>  Eigen, time=9.013913
<Band_DFT>  DM, time=0.000002
    1    C  MulP   1.9981  1.9981 sum   3.9962
    2    C  MulP   1.9943  1.9943 sum   3.9887
    3    C  MulP   1.9945  1.9945 sum   3.9890
    4    C  MulP   1.9978  1.9978 sum   3.9956
    5    C  MulP   1.9996  1.9996 sum   3.9992
    6    C  MulP   1.9982  1.9982 sum   3.9963
    7    C  MulP   1.9983  1.9983 sum   3.9967
    8    C  MulP   1.9995  1.9995 sum   3.9989
    9    C  MulP   1.9958  1.9958 sum   3.9915
   10    C  MulP   1.9763  1.9763 sum   3.9527
   11    C  MulP   1.9739  1.9739 sum   3.9479
   12    C  MulP   1.9763  1.9763 sum   3.9525
   13    C  MulP   1.9957  1.9957 sum   3.9915
   14    C  MulP   1.9983  1.9983 sum   3.9966
   15    C  MulP   1.9996  1.9996 sum   3.9993
   16    C  MulP   1.9984  1.9984 sum   3.9967
   17    C  MulP   2.0037  2.0037 sum   4.0073
   18    C  MulP   2.0532  2.0532 sum   4.1064
   19    C  MulP   2.0449  2.0449 sum   4.0897
   20    C  MulP   2.0031  2.0031 sum   4.0062
     ..........
     ......

 Sum of MulP: up   =   216.00000 down          =   216.00000
              total=   432.00000 ideal(neutral)=   432.00000
<DFT>  Total Spin Moment (muB) =  0.000000000000
<DFT>  Mixing_weight= 0.030000000000
<DFT>  Uele   = -210.289229550477  dUele     =   0.000003554304
<DFT>  NormRD =    0.000002048129  Criterion =   0.000000010000

******************* MD= 1  SCF=38 *******************
<Poisson>  Poisson's equation using FFT...
<Set_Hamiltonian>  Hamiltonian matrix for VNA+dVH+Vxc...
<Band>  Solving the eigenvalue problem...
 KGrids1:  -0.43750  -0.31250  -0.18750  -0.06250   0.06250   0.18750   0.31250   0.43750 
 KGrids2:  -0.43750  -0.31250  -0.18750  -0.06250   0.06250   0.18750   0.31250   0.43750 
 KGrids3:   0.00000 
<Band_DFT>  Eigen, time=9.015572
<Band_DFT>  DM, time=0.000000
    1    C  MulP   1.9981  1.9981 sum   3.9962
    2    C  MulP   1.9943  1.9943 sum   3.9887
    3    C  MulP   1.9945  1.9945 sum   3.9890
    4    C  MulP   1.9978  1.9978 sum   3.9956
    5    C  MulP   1.9996  1.9996 sum   3.9992
    6    C  MulP   1.9982  1.9982 sum   3.9963
    7    C  MulP   1.9983  1.9983 sum   3.9967
    8    C  MulP   1.9995  1.9995 sum   3.9989
    9    C  MulP   1.9958  1.9958 sum   3.9915
   10    C  MulP   1.9763  1.9763 sum   3.9527
   11    C  MulP   1.9739  1.9739 sum   3.9479
   12    C  MulP   1.9763  1.9763 sum   3.9525
   13    C  MulP   1.9957  1.9957 sum   3.9915
   14    C  MulP   1.9983  1.9983 sum   3.9966
   15    C  MulP   1.9996  1.9996 sum   3.9993
   16    C  MulP   1.9984  1.9984 sum   3.9967
   17    C  MulP   2.0037  2.0037 sum   4.0073
   18    C  MulP   2.0532  2.0532 sum   4.1064
   19    C  MulP   2.0449  2.0449 sum   4.0897
   20    C  MulP   2.0031  2.0031 sum   4.0062
     ..........
     ......

 Sum of MulP: up   =   216.00000 down          =   216.00000
[...]
   15    C  MulP   1.9996  1.9996 sum   3.9993
   16    C  MulP   1.9984  1.9984 sum   3.9967
   17    C  MulP   2.0036  2.0036 sum   4.0072
   18    C  MulP   2.0532  2.0532 sum   4.1064
   19    C  MulP   2.0447  2.0447 sum   4.0894
   20    C  MulP   2.0031  2.0031 sum   4.0063
     ..........
     ......

 Sum of MulP: up   =   216.00000 down          =   216.00000
              total=   432.00000 ideal(neutral)=   432.00000
<DFT>  Total Spin Moment (muB) =  0.000000000000
<DFT>  Mixing_weight= 0.030000000000
<DFT>  Uele   = -210.189251773407  dUele     =   0.000000267365
<DFT>  NormRD =    0.000002338561  Criterion =   0.000000010000

******************* MD=18  SCF=21 *******************
<Poisson>  Poisson's equation using FFT...
<Set_Hamiltonian>  Hamiltonian matrix for VNA+dVH+Vxc...
<Band>  Solving the eigenvalue problem...
 KGrids1:  -0.43750  -0.31250  -0.18750  -0.06250   0.06250   0.18750   0.31250   0.43750 
 KGrids2:  -0.43750  -0.31250  -0.18750  -0.06250   0.06250   0.18750   0.31250   0.43750 
 KGrids3:   0.00000 
<Band_DFT>  Eigen, time=8.408653
<Band_DFT>  DM, time=0.000000
    1    C  MulP   1.9981  1.9981 sum   3.9961
    2    C  MulP   1.9943  1.9943 sum   3.9887
    3    C  MulP   1.9945  1.9945 sum   3.9890
    4    C  MulP   1.9978  1.9978 sum   3.9957
    5    C  MulP   1.9996  1.9996 sum   3.9992
    6    C  MulP   1.9982  1.9982 sum   3.9963
    7    C  MulP   1.9984  1.9984 sum   3.9967
    8    C  MulP   1.9995  1.9995 sum   3.9990
    9    C  MulP   1.9958  1.9958 sum   3.9915
   10    C  MulP   1.9763  1.9763 sum   3.9527
   11    C  MulP   1.9739  1.9739 sum   3.9479
   12    C  MulP   1.9763  1.9763 sum   3.9526
   13    C  MulP   1.9957  1.9957 sum   3.9915
   14    C  MulP   1.9983  1.9983 sum   3.9967
   15    C  MulP   1.9996  1.9996 sum   3.9993
   16    C  MulP   1.9984  1.9984 sum   3.9967
   17    C  MulP   2.0036  2.0036 sum   4.0072
   18    C  MulP   2.0532  2.0532 sum   4.1064
   19    C  MulP   2.0447  2.0447 sum   4.0894
   20    C  MulP   2.0031  2.0031 sum   4.0063
     ..........
     ......

 Sum of MulP: up   =   216.00000 down          =   216.00000
              total=   432.00000 ideal(neutral)=   432.00000
<DFT>  Total Spin Moment (muB) =  0.000000000000
<DFT>  Mixing_weight= 0.030000000000
<DFT>  Uele   = -210.189251794115  dUele     =   0.000000020707
<DFT>  NormRD =    0.000002033772  Criterion =   0.000000010000

******************* MD=18  SCF=22 *******************
<Poisson>  Poisson's equation using FFT...
<Set_Hamiltonian>  Hamiltonian matrix for VNA+dVH+Vxc...
<Band>  Solving the eigenvalue problem...
 KGrids1:  -0.43750  -0.31250  -0.18750  -0.06250   0.06250   0.18750   0.31250   0.43750 
 KGrids2:  -0.43750  -0.31250  -0.18750  -0.06250   0.06250   0.18750   0.31250   0.43750 
 KGrids3:   0.00000 
<Band_DFT>  Eigen, time=8.398945
<Band_DFT>  DM, time=0.000000
    1    C  MulP   1.9981  1.9981 sum   3.9961
    2    C  MulP   1.9943  1.9943 sum   3.9887
    3    C  MulP   1.9945  1.9945 sum   3.9890
    4    C  MulP   1.9978  1.9978 sum   3.9957
    5    C  MulP   1.9996  1.9996 sum   3.9992
    6    C  MulP   1.9982  1.9982 sum   3.9963
    7    C  MulP   1.9984  1.9984 sum   3.9967
    8    C  MulP   1.9995  1.9995 sum   3.9990
    9    C  MulP   1.9958  1.9958 sum   3.9915
   10    C  MulP   1.9763  1.9763 sum   3.9527
   11    C  MulP   1.9739  1.9739 sum   3.9479
   12    C  MulP   1.9763  1.9763 sum   3.9526
   13    C  MulP   1.9957  1.9957 sum   3.9915
   14    C  MulP   1.9983  1.9983 sum   3.9967
   15    C  MulP   1.9996  1.9996 sum   3.9993
   16    C  MulP   1.9984  1.9984 sum   3.9967
   17    C  MulP   2.0036  2.0036 sum   4.0072
   18    C  MulP   2.0532  2.0532 sum   4.1064
   19    C  MulP   2.0447  2.0447 sum   4.0894
   20    C  MulP   2.0031  2.0031 sum   4.0063
     ..........
     ......

 Sum of MulP: up   =   216.00000 down          =   216.00000
              total=   432.00000 ideal(neutral)=   432.00000
<DFT>  Total Spin Moment (muB) =  0.000000000000
<DFT>  Mixing_weight= 0.030000000000
<DFT>  Uele   = -210.189251787093  dUele     =   0.000000007022
<DFT>  NormRD =    0.000000353865  Criterion =   0.000000010000
<MD=18>  Force calculation
  Force calculation #1
  Force calculation #2
  Force calculation #3
  Force calculation #4
  Force calculation #5
<MD=18>  Total Energy
  Force calculation #6
  Force calculation #7

*******************************************************
                  Dipole moment (Debye)                 
*******************************************************

 Absolute D        0.06391685

                      Dx                Dy                Dz
 Total             -0.00014363       -0.00040293       -0.06391542
 Core           10239.17114129    17734.76409509    21859.48011930
 Electron      -10239.17128492   -17734.76449802   -21859.54403472
 Back ground       -0.00000000       -0.00000000       -0.00000000

*******************************************************
                Total Energy (Hartree) at MD =18        
*******************************************************

  Uele  =    -210.189251787093

  Ukin  =     456.356862104747
  UH0   =   -5566.921762120031
  UH1   =       1.706360474818
  Una   =    -331.840419742636
  Unl   =     -48.097003326859
  Uxc0  =    -104.781464209143
  Uxc1  =    -104.781464209143
  Ucore =    5053.658112021212
  Uhub  =       0.000000000000
  Ucs   =       0.000000000000
  Uzs   =       0.000000000000
  Uzo   =       0.000000000000
  Uef   =       0.000000000000
  UvdW  =       0.000000000000
  Uch   =       0.000000000000
  Utot  =    -644.700779007036

  UpV   =       0.000000000000
  Enpy  =    -644.700779007036
  Note:

  Uele:   band energy
  Ukin:   kinetic energy
  UH0:    electric part of screened Coulomb energy
  UH1:    difference electron-electron Coulomb energy
  Una:    neutral atom potential energy
  Unl:    non-local potential energy
  Uxc0:   exchange-correlation energy for alpha spin
  Uxc1:   exchange-correlation energy for beta spin
  Ucore:  core-core Coulomb energy
  Uhub:   LDA+U energy
  Ucs:    constraint energy for spin orientation
  Uzs:    Zeeman term for spin magnetic moment
  Uzo:    Zeeman term for orbital magnetic moment
  Uef:    electric energy by electric field
  UvdW:   semi-empirical vdW energy 
  Uch:    penalty term to create a core hole
  UpV:    pressure times volume
  Enpy:   Enthalpy = Utot + UpV
  (see also PRB 72, 045121(2005) for the energy contributions)


*******************************************************
           Computational times (s) at MD =18            
*******************************************************

  DFT in total      =  226.38590

  Set_OLP_Kin       =    0.56630
  Set_Nonlocal      =    2.04387
  Set_ProExpn_VNA   =    3.40718
  Set_Hamiltonian   =   15.77538
  Poisson           =    0.25172
  diagonalization   =  191.41581
  Mixing_DM         =    2.33760
  Force             =    2.77182
  Total_Energy      =    0.85804
  Set_Aden_Grid     =    0.18259
  Set_Orbitals_Grid =    0.29401
  Set_Density_Grid  =    5.72243
  RestartFileDFT    =    0.30851
  Mulliken_Charge   =    0.01208
  FFT(2D)_Density   =    0.26632

The SCF was achieved at MD=  18

*******************************************************
             MD or geometry opt. at MD =18              
*******************************************************


The geometry optimization was achieved.
<RF>  |Maximum force| (Hartree/Bohr) = 0.000095229762
<RF>  Criterion       (Hartree/Bohr) = 0.000100000000

     atom=   1, XYZ(ang) Fxyz(a.u.)=  -0.0038    1.4212   10.4994    -0.0000   -0.0000   -0.0000
     atom=   2, XYZ(ang) Fxyz(a.u.)=  -1.2232    3.5785   10.4990    -0.0000    0.0000    0.0000
     atom=   3, XYZ(ang) Fxyz(a.u.)=  -2.4472    5.6981   10.4986    -0.0000    0.0000   -0.0000
     atom=   4, XYZ(ang) Fxyz(a.u.)=  -3.7055    7.8329   10.4992     0.0000    0.0000   -0.0000
     atom=   5, XYZ(ang) Fxyz(a.u.)=  -4.9343    9.9728   10.4986     0.0000   -0.0000    0.0000
     atom=   6, XYZ(ang) Fxyz(a.u.)=  -6.1747   12.1098   10.4970     0.0000   -0.0000    0.0001
     atom=   7, XYZ(ang) Fxyz(a.u.)=  -7.4034   14.2377   10.4965     0.0000   -0.0000    0.0000
     atom=   8, XYZ(ang) Fxyz(a.u.)=  -8.6340   16.3806   10.4981    -0.0000    0.0000    0.0000
     atom=   9, XYZ(ang) Fxyz(a.u.)=   2.4703    1.4125   10.5009    -0.0000   -0.0000   -0.0000
     atom=  10, XYZ(ang) Fxyz(a.u.)=   1.2269    3.5526   10.5049    -0.0000   -0.0000    0.0000
     atom=  11, XYZ(ang) Fxyz(a.u.)=   0.1044    5.7576   10.5039     0.0000   -0.0000    0.0000
     atom=  12, XYZ(ang) Fxyz(a.u.)=  -1.2438    7.8323   10.5014     0.0000    0.0000   -0.0000
     atom=  13, XYZ(ang) Fxyz(a.u.)=  -2.4751    9.9794   10.4999     0.0000    0.0000   -0.0000
     atom=  14, XYZ(ang) Fxyz(a.u.)=  -3.6933   12.1095   10.4973     0.0000    0.0000    0.0000
     atom=  15, XYZ(ang) Fxyz(a.u.)=  -4.9341   14.2444   10.4955     0.0000   -0.0000    0.0001
     atom=  16, XYZ(ang) Fxyz(a.u.)=  -6.1629   16.3861   10.4966     0.0000   -0.0000    0.0000
     atom=  17, XYZ(ang) Fxyz(a.u.)=   4.9343    1.4703   10.5002     0.0000   -0.0000   -0.0000
     atom=  18, XYZ(ang) Fxyz(a.u.)=   3.6504    3.5568   10.5071     0.0000   -0.0000    0.0000
     atom=  19, XYZ(ang) Fxyz(a.u.)=  -0.0289    9.9299   10.5023     0.0000   -0.0000   -0.0000
     atom=  20, XYZ(ang) Fxyz(a.u.)=  -1.1925   12.0843   10.4996     0.0000    0.0000    0.0000
     atom=  21, XYZ(ang) Fxyz(a.u.)=  -2.4647   14.2373   10.4974     0.0000   -0.0000    0.0000
     atom=  22, XYZ(ang) Fxyz(a.u.)=  -3.7057   16.3860   10.4972     0.0000   -0.0000    0.0001
     atom=  23, XYZ(ang) Fxyz(a.u.)=   7.3985    1.4123   10.4998     0.0000   -0.0000    0.0001
     atom=  24, XYZ(ang) Fxyz(a.u.)=   6.2179    3.5555   10.5029     0.0000    0.0000   -0.0000
     atom=  25, XYZ(ang) Fxyz(a.u.)=   1.2547   12.1546   10.5021     0.0000   -0.0000   -0.0000
     atom=  26, XYZ(ang) Fxyz(a.u.)=  -0.0109   14.2479   10.5000     0.0000   -0.0000   -0.0000
     atom=  27, XYZ(ang) Fxyz(a.u.)=  -1.2349   16.3805   10.4989     0.0000   -0.0000    0.0000
     atom=  28, XYZ(ang) Fxyz(a.u.)=   9.8724    1.4214   10.4996    -0.0000   -0.0000    0.0000
     atom=  29, XYZ(ang) Fxyz(a.u.)=   8.6412    3.5529   10.5015    -0.0000   -0.0000    0.0000
     atom=  30, XYZ(ang) Fxyz(a.u.)=   2.4643   14.2553   10.5012    -0.0000   -0.0000   -0.0000
     atom=  31, XYZ(ang) Fxyz(a.u.)=   1.2329   16.3866   10.4993    -0.0000   -0.0000   -0.0000
     atom=  32, XYZ(ang) Fxyz(a.u.)=  12.3399    1.4274   10.4975    -0.0000   -0.0000   -0.0000
     atom=  33, XYZ(ang) Fxyz(a.u.)=  11.0911    3.5793   10.4989    -0.0000    0.0000    0.0000
     atom=  34, XYZ(ang) Fxyz(a.u.)=   9.7631    5.7591   10.5018    -0.0000    0.0000   -0.0000
     atom=  35, XYZ(ang) Fxyz(a.u.)=   4.9351   14.1250   10.5037     0.0000   -0.0000    0.0000
     atom=  36, XYZ(ang) Fxyz(a.u.)=   3.7109   16.3643   10.4986    -0.0000   -0.0000   -0.0001
     atom=  37, XYZ(ang) Fxyz(a.u.)=  14.8034    1.4244   10.4956    -0.0000    0.0000   -0.0001
     atom=  38, XYZ(ang) Fxyz(a.u.)=  13.5688    3.5620   10.4964    -0.0000    0.0000   -0.0000
     atom=  39, XYZ(ang) Fxyz(a.u.)=  12.3151    5.6989   10.4988    -0.0000    0.0000    0.0000
     atom=  40, XYZ(ang) Fxyz(a.u.)=  11.1124    7.8335   10.5016    -0.0000    0.0000    0.0000
     atom=  41, XYZ(ang) Fxyz(a.u.)=   9.8985    9.9311   10.5033    -0.0000   -0.0000   -0.0000
     atom=  42, XYZ(ang) Fxyz(a.u.)=   8.6141   12.1545   10.5072     0.0000    0.0000    0.0000
     atom=  43, XYZ(ang) Fxyz(a.u.)=   7.4053   14.2552   10.5049     0.0000    0.0000    0.0000
     atom=  44, XYZ(ang) Fxyz(a.u.)=   6.1583   16.3643   10.4991    -0.0000    0.0000    0.0000
     atom=  45, XYZ(ang) Fxyz(a.u.)=  17.2668    1.4271   10.4964    -0.0000    0.0000   -0.0001
     atom=  46, XYZ(ang) Fxyz(a.u.)=  16.0375    3.5617   10.4956    -0.0000    0.0000   -0.0001
     atom=  47, XYZ(ang) Fxyz(a.u.)=  14.8031    5.6935   10.4973    -0.0000    0.0000   -0.0000
     atom=  48, XYZ(ang) Fxyz(a.u.)=  13.5742    7.8333   10.4995     0.0000    0.0000    0.0000
     atom=  49, XYZ(ang) Fxyz(a.u.)=  12.3449    9.9801   10.4997     0.0000   -0.0000    0.0000
     atom=  50, XYZ(ang) Fxyz(a.u.)=  11.0628   12.0852   10.5001     0.0000   -0.0000   -0.0000
     atom=  51, XYZ(ang) Fxyz(a.u.)=   9.8807   14.2483   10.5008     0.0000    0.0000   -0.0000
     atom=  52, XYZ(ang) Fxyz(a.u.)=   8.6363   16.3865   10.4994    -0.0000    0.0000    0.0000
     atom=  53, XYZ(ang) Fxyz(a.u.)=   1.2328    0.7074   10.4994     0.0000   -0.0000    0.0000
     atom=  54, XYZ(ang) Fxyz(a.u.)=  -0.0115    2.8456   10.5008    -0.0000   -0.0000   -0.0000
     atom=  55, XYZ(ang) Fxyz(a.u.)=  -1.1937    5.0086   10.5001    -0.0000    0.0000   -0.0000
     atom=  56, XYZ(ang) Fxyz(a.u.)=  -2.4757    7.1138   10.4997    -0.0000    0.0000    0.0000
     atom=  57, XYZ(ang) Fxyz(a.u.)=  -3.7050    9.2606   10.4995    -0.0000   -0.0000    0.0000
     atom=  58, XYZ(ang) Fxyz(a.u.)=  -4.9339   11.4004   10.4973     0.0000   -0.0000   -0.0000
     atom=  59, XYZ(ang) Fxyz(a.u.)=  -6.1683   13.5321   10.4956     0.0000   -0.0000   -0.0001
     atom=  60, XYZ(ang) Fxyz(a.u.)=  -7.3976   15.6668   10.4964     0.0000   -0.0000   -0.0001
     atom=  61, XYZ(ang) Fxyz(a.u.)=   3.7108    0.7296   10.4991     0.0000   -0.0000    0.0000
     atom=  62, XYZ(ang) Fxyz(a.u.)=   2.4639    2.8387   10.5049    -0.0000   -0.0000    0.0000
     atom=  63, XYZ(ang) Fxyz(a.u.)=   1.2550    4.9394   10.5072    -0.0000   -0.0000    0.0000
     atom=  64, XYZ(ang) Fxyz(a.u.)=  -0.0293    7.1628   10.5033     0.0000    0.0000   -0.0000
     atom=  65, XYZ(ang) Fxyz(a.u.)=  -1.2432    9.2604   10.5016     0.0000   -0.0000    0.0000
     atom=  66, XYZ(ang) Fxyz(a.u.)=  -2.4459   11.3950   10.4988     0.0000   -0.0000    0.0000
     atom=  67, XYZ(ang) Fxyz(a.u.)=  -3.6996   13.5319   10.4964     0.0000   -0.0000   -0.0000
     atom=  68, XYZ(ang) Fxyz(a.u.)=  -4.9342   15.6695   10.4956     0.0000   -0.0000   -0.0001
     atom=  69, XYZ(ang) Fxyz(a.u.)=   6.1582    0.7296   10.4986     0.0000    0.0000   -0.0001
     atom=  70, XYZ(ang) Fxyz(a.u.)=   4.9341    2.9689   10.5037    -0.0000    0.0000    0.0000
     atom=  71, XYZ(ang) Fxyz(a.u.)=   0.1061   11.3348   10.5018     0.0000   -0.0000   -0.0000
     atom=  72, XYZ(ang) Fxyz(a.u.)=  -1.2219   13.5146   10.4989     0.0000   -0.0000    0.0000
     atom=  73, XYZ(ang) Fxyz(a.u.)=  -2.4708   15.6665   10.4975     0.0000    0.0000   -0.0000
     atom=  74, XYZ(ang) Fxyz(a.u.)=   8.6363    0.7073   10.4993     0.0000    0.0000   -0.0000
     atom=  75, XYZ(ang) Fxyz(a.u.)=   7.4049    2.8386   10.5012     0.0000    0.0000   -0.0000
     atom=  76, XYZ(ang) Fxyz(a.u.)=   1.2279   13.5410   10.5015     0.0000    0.0000    0.0000
     atom=  77, XYZ(ang) Fxyz(a.u.)=  -0.0033   15.6725   10.4996     0.0000    0.0000    0.0000
     atom=  78, XYZ(ang) Fxyz(a.u.)=  11.1040    0.7134   10.4989    -0.0000    0.0000    0.0000
     atom=  79, XYZ(ang) Fxyz(a.u.)=   9.8801    2.8460   10.5000    -0.0000    0.0000   -0.0000
     atom=  80, XYZ(ang) Fxyz(a.u.)=   8.6144    4.9393   10.5021    -0.0000    0.0000   -0.0000
     atom=  81, XYZ(ang) Fxyz(a.u.)=   3.6513   13.5384   10.5029    -0.0000   -0.0000   -0.0000
     atom=  82, XYZ(ang) Fxyz(a.u.)=   2.4706   15.6815   10.4998    -0.0000    0.0000    0.0001
     atom=  83, XYZ(ang) Fxyz(a.u.)=  13.5749    0.7078   10.4972    -0.0000    0.0000    0.0001
     atom=  84, XYZ(ang) Fxyz(a.u.)=  12.3338    2.8566   10.4974    -0.0000    0.0000    0.0000
     atom=  85, XYZ(ang) Fxyz(a.u.)=  11.0617    5.0096   10.4996    -0.0000   -0.0000    0.0000
     atom=  86, XYZ(ang) Fxyz(a.u.)=   9.8981    7.1640   10.5023    -0.0000    0.0000   -0.0000
     atom=  87, XYZ(ang) Fxyz(a.u.)=   6.2187   13.5370   10.5071    -0.0000    0.0000    0.0000
     atom=  88, XYZ(ang) Fxyz(a.u.)=   4.9348   15.6236   10.5002    -0.0000    0.0000   -0.0000
     atom=  89, XYZ(ang) Fxyz(a.u.)=  16.0320    0.7078   10.4966    -0.0000    0.0000    0.0000
     atom=  90, XYZ(ang) Fxyz(a.u.)=  14.8032    2.8495   10.4955    -0.0000    0.0000    0.0001
     atom=  91, XYZ(ang) Fxyz(a.u.)=  13.5624    4.9844   10.4973    -0.0000   -0.0000    0.0000
     atom=  92, XYZ(ang) Fxyz(a.u.)=  12.3443    7.1145   10.4999    -0.0000   -0.0000   -0.0000
     atom=  93, XYZ(ang) Fxyz(a.u.)=  11.1130    9.2616   10.5014    -0.0000   -0.0000   -0.0000
     atom=  94, XYZ(ang) Fxyz(a.u.)=   9.7647   11.3363   10.5039    -0.0000    0.0000    0.0000
     atom=  95, XYZ(ang) Fxyz(a.u.)=   8.6423   13.5413   10.5049     0.0000    0.0000    0.0000
     atom=  96, XYZ(ang) Fxyz(a.u.)=   7.3988   15.6814   10.5009     0.0000    0.0000   -0.0000
     atom=  97, XYZ(ang) Fxyz(a.u.)=  18.5031    0.7132   10.4981     0.0000   -0.0000    0.0000
     atom=  98, XYZ(ang) Fxyz(a.u.)=  17.2726    2.8562   10.4965    -0.0000    0.0000    0.0000
     atom=  99, XYZ(ang) Fxyz(a.u.)=  16.0438    4.9841   10.4970    -0.0000    0.0000    0.0001
     atom= 100, XYZ(ang) Fxyz(a.u.)=  14.8034    7.1210   10.4986    -0.0000    0.0000    0.0000
     atom= 101, XYZ(ang) Fxyz(a.u.)=  13.5747    9.2610   10.4992    -0.0000   -0.0000   -0.0000
     atom= 102, XYZ(ang) Fxyz(a.u.)=  12.3163   11.3958   10.4986     0.0000   -0.0000   -0.0000
     atom= 103, XYZ(ang) Fxyz(a.u.)=  11.0923   13.5153   10.4990     0.0000   -0.0000    0.0000
     atom= 104, XYZ(ang) Fxyz(a.u.)=   9.8729   15.6727   10.4994     0.0000    0.0000   -0.0000
     atom= 105, XYZ(ang) Fxyz(a.u.)=   4.9346    8.5469   11.4408    -0.0000   -0.0000    0.0001
     atom= 106, XYZ(ang) Fxyz(a.u.)=   3.9095    9.1526   11.4432     0.0000    0.0001   -0.0000
     atom= 107, XYZ(ang) Fxyz(a.u.)=   5.9596    7.9413   11.4432    -0.0000   -0.0001   -0.0000

outputting data on grids to files...


***********************************************************
***********************************************************
               Computational Time (second)                 
***********************************************************
***********************************************************

                               Min_ID   Min_Time       Max_ID   Max_Time
   Total Computational Time =     2     4626.835          0     4626.984
   readfile                 =    57        2.345          4        2.357
   truncation               =    48       12.277         61       14.078
   MD_pac                   =     0        0.501         63        0.556
   OutData                  =    15        0.862          0        0.962
   DFT                      =    61     4608.949         48     4610.750

*** In DFT ***

   Set_OLP_Kin              =    24        8.159         46       19.750
   Set_Nonlocal             =    17       27.489         24       39.078
   Set_ProExpn_VNA          =    28       58.880         41       62.497
   Set_Hamiltonian          =    63      312.642         26      312.643
   Poisson                  =    38        5.098         54        5.101
   Diagonalization          =     0     3930.531         27     3930.538
   Mixing_DM                =    45       48.044         52       48.045
   Force                    =    22       48.899         50       48.899
   Total_Energy             =    56       15.453          0       15.459
   Set_Aden_Grid            =    41        1.085         28        4.689
   Set_Orbitals_Grid        =    48        2.501         61        9.878
   Set_Density_Grid         =    33      111.864         62      118.556
   RestartFileDFT           =     3        1.238         48        8.221
   Mulliken_Charge          =    12        0.250          0        0.250
   FFT(2D)_Density          =    58        5.342         37        5.347
   Others                   =    63        2.243         34       10.762

The calculation was normally finished.
