
The number of threads in each node for OpenMP parallelization is 1.


*******************************************************
*******************************************************
 Welcome to OpenMX   Ver. 3.9.9                           
 Copyright (C), 2002-2019, T. Ozaki                    
 OpenMX comes with ABSOLUTELY NO WARRANTY.             
 This is free software, and you are welcome to         
 redistribute it under the constitution of the GNU-GPL.
*******************************************************
*******************************************************

Automatic determination of Kerker_factor:   3.992945286074


<Input_std>  Your input file was normally read.
<Input_std>  The system includes 2 species and 120 atoms.

*******************************************************
                     PAO and VPS                       
*******************************************************

<SetPara_DFT>  PAOs of species C were normally found.
<SetPara_DFT>  PAOs of species O were normally found.
<SetPara_DFT>  VPSs of species C were normally found.
               C_PBE19.vps is j-dependent.
               In case of scf.SpinOrbit.Coupling=off,
               j-dependent pseudo potentials are averaged by j-degeneracy,
               which corresponds to a scalar relativistic treatment.
<SetPara_DFT>  VPSs of species O were normally found.
               O_PBE19.vps is j-dependent.
               In case of scf.SpinOrbit.Coupling=off,
               j-dependent pseudo potentials are averaged by j-degeneracy,
               which corresponds to a scalar relativistic treatment.

*******************************************************
     Fourier transform of PAO and projectors of VNL    
*******************************************************

<FT_PAO>          Fourier transform of pseudo atomic orbitals
<FT_NLP>          Fourier transform of non-local projectors
<FT_ProExpn_VNA>  Fourier transform of VNA separable projectors
<FT_VNA>          Fourier transform of VNA potentials
<FT_ProductPAO>   Fourier transform of product of PAOs

*******************************************************
  Allocation of atoms to processors at MD_iter=    1     
*******************************************************

 proc =   0  # of atoms=   1  estimated weight=         1.00000
 proc =   1  # of atoms=   2  estimated weight=         2.00000
 proc =   2  # of atoms=   2  estimated weight=         2.00000
 proc =   3  # of atoms=   2  estimated weight=         2.00000
 proc =   4  # of atoms=   2  estimated weight=         2.00000
 proc =   5  # of atoms=   2  estimated weight=         2.00000
 proc =   6  # of atoms=   2  estimated weight=         2.00000
 proc =   7  # of atoms=   2  estimated weight=         2.00000
 proc =   8  # of atoms=   1  estimated weight=         1.00000
 proc =   9  # of atoms=   2  estimated weight=         2.00000
 proc =  10  # of atoms=   2  estimated weight=         2.00000
 proc =  11  # of atoms=   2  estimated weight=         2.00000
 proc =  12  # of atoms=   2  estimated weight=         2.00000
 proc =  13  # of atoms=   2  estimated weight=         2.00000
 proc =  14  # of atoms=   2  estimated weight=         2.00000
 proc =  15  # of atoms=   2  estimated weight=         2.00000
 proc =  16  # of atoms=   1  estimated weight=         1.00000
 proc =  17  # of atoms=   2  estimated weight=         2.00000
 proc =  18  # of atoms=   2  estimated weight=         2.00000
 proc =  19  # of atoms=   2  estimated weight=         2.00000
 proc =  20  # of atoms=   2  estimated weight=         2.00000
 proc =  21  # of atoms=   2  estimated weight=         2.00000
 proc =  22  # of atoms=   2  estimated weight=         2.00000
 proc =  23  # of atoms=   2  estimated weight=         2.00000
 proc =  24  # of atoms=   1  estimated weight=         1.00000
 proc =  25  # of atoms=   2  estimated weight=         2.00000
 proc =  26  # of atoms=   2  estimated weight=         2.00000
 proc =  27  # of atoms=   2  estimated weight=         2.00000
 proc =  28  # of atoms=   2  estimated weight=         2.00000
 proc =  29  # of atoms=   2  estimated weight=         2.00000
 proc =  30  # of atoms=   2  estimated weight=         2.00000
 proc =  31  # of atoms=   2  estimated weight=         2.00000
 proc =  32  # of atoms=   1  estimated weight=         1.00000
 proc =  33  # of atoms=   2  estimated weight=         2.00000
 proc =  34  # of atoms=   2  estimated weight=         2.00000
 proc =  35  # of atoms=   2  estimated weight=         2.00000
 proc =  36  # of atoms=   2  estimated weight=         2.00000
 proc =  37  # of atoms=   2  estimated weight=         2.00000
 proc =  38  # of atoms=   2  estimated weight=         2.00000
 proc =  39  # of atoms=   2  estimated weight=         2.00000
 proc =  40  # of atoms=   1  estimated weight=         1.00000
 proc =  41  # of atoms=   2  estimated weight=         2.00000
 proc =  42  # of atoms=   2  estimated weight=         2.00000
 proc =  43  # of atoms=   2  estimated weight=         2.00000
 proc =  44  # of atoms=   2  estimated weight=         2.00000
 proc =  45  # of atoms=   2  estimated weight=         2.00000
 proc =  46  # of atoms=   2  estimated weight=         2.00000
 proc =  47  # of atoms=   2  estimated weight=         2.00000
 proc =  48  # of atoms=   1  estimated weight=         1.00000
 proc =  49  # of atoms=   2  estimated weight=         2.00000
 proc =  50  # of atoms=   2  estimated weight=         2.00000
 proc =  51  # of atoms=   2  estimated weight=         2.00000
 proc =  52  # of atoms=   2  estimated weight=         2.00000
 proc =  53  # of atoms=   2  estimated weight=         2.00000
 proc =  54  # of atoms=   2  estimated weight=         2.00000
 proc =  55  # of atoms=   2  estimated weight=         2.00000
 proc =  56  # of atoms=   1  estimated weight=         1.00000
 proc =  57  # of atoms=   2  estimated weight=         2.00000
 proc =  58  # of atoms=   2  estimated weight=         2.00000
 proc =  59  # of atoms=   2  estimated weight=         2.00000
 proc =  60  # of atoms=   2  estimated weight=         2.00000
 proc =  61  # of atoms=   2  estimated weight=         2.00000
 proc =  62  # of atoms=   2  estimated weight=         2.00000
 proc =  63  # of atoms=   2  estimated weight=         2.00000




*******************************************************
        Analysis of neighbors and setting of grids        
*******************************************************

TFNAN=    5004   Average FNAN=  41.70000
TSNAN=       0   Average SNAN=   0.00000
<truncation> CpyCell= 1 ct_AN=   1 FNAN SNAN  44   0
<truncation> CpyCell= 1 ct_AN=   2 FNAN SNAN  44   0
<truncation> CpyCell= 1 ct_AN=   3 FNAN SNAN  46   0
<truncation> CpyCell= 1 ct_AN=   4 FNAN SNAN  45   0
<truncation> CpyCell= 1 ct_AN=   5 FNAN SNAN  44   0
<truncation> CpyCell= 1 ct_AN=   6 FNAN SNAN  45   0
<truncation> CpyCell= 1 ct_AN=   7 FNAN SNAN  45   0
<truncation> CpyCell= 1 ct_AN=   8 FNAN SNAN  45   0
<truncation> CpyCell= 1 ct_AN=   9 FNAN SNAN  42   0
<truncation> CpyCell= 1 ct_AN=  10 FNAN SNAN  42   0
<truncation> CpyCell= 1 ct_AN=  11 FNAN SNAN  43   0
<truncation> CpyCell= 1 ct_AN=  12 FNAN SNAN  44   0
<truncation> CpyCell= 1 ct_AN=  13 FNAN SNAN  44   0
<truncation> CpyCell= 1 ct_AN=  14 FNAN SNAN  45   0
<truncation> CpyCell= 1 ct_AN=  15 FNAN SNAN  45   0
<truncation> CpyCell= 1 ct_AN=  16 FNAN SNAN  45   0
<truncation> CpyCell= 1 ct_AN=  17 FNAN SNAN  41   0
<truncation> CpyCell= 1 ct_AN=  18 FNAN SNAN  39   0
<truncation> CpyCell= 1 ct_AN=  19 FNAN SNAN  39   0
<truncation> CpyCell= 1 ct_AN=  20 FNAN SNAN  38   0
     ..........
     ......

TFNAN=    5004   Average FNAN=  41.70000
TSNAN=       0   Average SNAN=   0.00000
<truncation> CpyCell= 2 ct_AN=   1 FNAN SNAN  44   0
<truncation> CpyCell= 2 ct_AN=   2 FNAN SNAN  44   0
<truncation> CpyCell= 2 ct_AN=   3 FNAN SNAN  46   0
<truncation> CpyCell= 2 ct_AN=   4 FNAN SNAN  45   0
<truncation> CpyCell= 2 ct_AN=   5 FNAN SNAN  44   0
<truncation> CpyCell= 2 ct_AN=   6 FNAN SNAN  45   0
<truncation> CpyCell= 2 ct_AN=   7 FNAN SNAN  45   0
<truncation> CpyCell= 2 ct_AN=   8 FNAN SNAN  45   0
<truncation> CpyCell= 2 ct_AN=   9 FNAN SNAN  42   0
<truncation> CpyCell= 2 ct_AN=  10 FNAN SNAN  42   0
<truncation> CpyCell= 2 ct_AN=  11 FNAN SNAN  43   0
<truncation> CpyCell= 2 ct_AN=  12 FNAN SNAN  44   0
<truncation> CpyCell= 2 ct_AN=  13 FNAN SNAN  44   0
<truncation> CpyCell= 2 ct_AN=  14 FNAN SNAN  45   0
<truncation> CpyCell= 2 ct_AN=  15 FNAN SNAN  45   0
<truncation> CpyCell= 2 ct_AN=  16 FNAN SNAN  45   0
<truncation> CpyCell= 2 ct_AN=  17 FNAN SNAN  41   0
<truncation> CpyCell= 2 ct_AN=  18 FNAN SNAN  39   0
<truncation> CpyCell= 2 ct_AN=  19 FNAN SNAN  39   0
<truncation> CpyCell= 2 ct_AN=  20 FNAN SNAN  38   0
     ..........
     ......

TFNAN=    5004   Average FNAN=  41.70000
TSNAN=       0   Average SNAN=   0.00000
<truncation> CpyCell= 2 ct_AN=   1 FNAN SNAN  44   0
<truncation> CpyCell= 2 ct_AN=   2 FNAN SNAN  44   0
<truncation> CpyCell= 2 ct_AN=   3 FNAN SNAN  46   0
<truncation> CpyCell= 2 ct_AN=   4 FNAN SNAN  45   0
<truncation> CpyCell= 2 ct_AN=   5 FNAN SNAN  44   0
<truncation> CpyCell= 2 ct_AN=   6 FNAN SNAN  45   0
<truncation> CpyCell= 2 ct_AN=   7 FNAN SNAN  45   0
<truncation> CpyCell= 2 ct_AN=   8 FNAN SNAN  45   0
<truncation> CpyCell= 2 ct_AN=   9 FNAN SNAN  42   0
<truncation> CpyCell= 2 ct_AN=  10 FNAN SNAN  42   0
<truncation> CpyCell= 2 ct_AN=  11 FNAN SNAN  43   0
<truncation> CpyCell= 2 ct_AN=  12 FNAN SNAN  44   0
<truncation> CpyCell= 2 ct_AN=  13 FNAN SNAN  44   0
<truncation> CpyCell= 2 ct_AN=  14 FNAN SNAN  45   0
<truncation> CpyCell= 2 ct_AN=  15 FNAN SNAN  45   0
<truncation> CpyCell= 2 ct_AN=  16 FNAN SNAN  45   0
<truncation> CpyCell= 2 ct_AN=  17 FNAN SNAN  41   0
<truncation> CpyCell= 2 ct_AN=  18 FNAN SNAN  39   0
<truncation> CpyCell= 2 ct_AN=  19 FNAN SNAN  39   0
<truncation> CpyCell= 2 ct_AN=  20 FNAN SNAN  38   0
     ..........
     ......

<Check_System> The system is slab.
lattice vectors (bohr)
A  = 37.299978480367,  0.000000000000,  0.000000000000
B  = -18.649989240184, 32.302728872609,  0.000000000000
C  =  0.000000000000,  0.000000000000, 39.684245760157
reciprocal lattice vectors (bohr^-1)
RA =  0.168450105420,  0.097254713866, -0.000000000000
RB =  0.000000000000,  0.194509427732,  0.000000000000
RC =  0.000000000000, -0.000000000000,  0.158329462658
Grid_Origin -0.064767788756  0.089727136335  0.280834089886
Cell_Volume =  47815.194201431834 (Bohr^3)
GridVol     =      0.006832303698 (Bohr^3)
Grid_Origin -0.064767788756  0.089727136335  0.280834089886
Cell_Volume =  47815.194201431834 (Bohr^3)
GridVol     =      0.006832303698 (Bohr^3)
<UCell_Box> Info. of cutoff energy and num. of grids
lattice vectors (bohr)
A  = 37.299978480367,  0.000000000000,  0.000000000000
B  = -18.649989240184, 32.302728872609,  0.000000000000
C  =  0.000000000000,  0.000000000000, 39.684245760157
reciprocal lattice vectors (bohr^-1)
RA =  0.168450105420,  0.097254713866, -0.000000000000
RB =  0.000000000000,  0.194509427732,  0.000000000000
RC =  0.000000000000, -0.000000000000,  0.158329462658
Required cutoff energy (Ryd) for 3D-grids = 300.0000
    Used cutoff energy (Ryd) for 3D-grids = 306.4547, 306.4547, 292.3957
Num. of grids of a-, b-, and c-axes = 180, 180, 216
Grid_Origin -0.064767788756  0.089727136335  0.280834089886
Cell_Volume =  47815.194201431834 (Bohr^3)
GridVol     =      0.006832303698 (Bohr^3)
Cell vectors (bohr) of the grid cell (gtv)
  gtv_a =  0.207222102669,  0.000000000000,  0.000000000000
  gtv_b = -0.103611051334,  0.179459604848,  0.000000000000
  gtv_c =  0.000000000000,  0.000000000000,  0.183723360001
  |gtv_a| =  0.207222102669
  |gtv_b| =  0.207222102419
  |gtv_c| =  0.183723360001
Num. of grids overlapping with atom    1 = 132431
Num. of grids overlapping with atom    2 = 132492
Num. of grids overlapping with atom    3 = 132387
Num. of grids overlapping with atom    4 = 132461
Num. of grids overlapping with atom    5 = 132403
Num. of grids overlapping with atom    6 = 132449
Num. of grids overlapping with atom    7 = 132421
Num. of grids overlapping with atom    8 = 132463
Num. of grids overlapping with atom    9 = 132445
Num. of grids overlapping with atom   10 = 132396
Num. of grids overlapping with atom   11 = 132419
Num. of grids overlapping with atom   12 = 132468
Num. of grids overlapping with atom   13 = 132421
Num. of grids overlapping with atom   14 = 132424
Num. of grids overlapping with atom   15 = 132401
Num. of grids overlapping with atom   16 = 132465
Num. of grids overlapping with atom   17 = 132456
Num. of grids overlapping with atom   18 = 132441
Num. of grids overlapping with atom   19 = 132396
Num. of grids overlapping with atom   20 = 132481
     ..........
     ......


*******************************************************
             SCF calculation at MD = 1                
*******************************************************

<MD= 1>  Calculation of the overlap matrix
<MD= 1>  Calculation of the nonlocal matrix
<MD= 1>  Calculation of the VNA projector matrix

******************* MD= 1  SCF= 1 *******************
<Band>  Solving the eigenvalue problem...
 KGrids1:  -0.43750  -0.31250  -0.18750  -0.06250   0.06250   0.18750   0.31250   0.43750 
 KGrids2:  -0.43750  -0.31250  -0.18750  -0.06250   0.06250   0.18750   0.31250   0.43750 
 KGrids3:   0.00000 
<Band_DFT>  Eigen, time=18.292055
<Band_DFT>  DM, time=0.000025
    1    C  MulP   2.0001  2.0001 sum   4.0002
    2    C  MulP   1.9991  1.9991 sum   3.9983
    3    C  MulP   1.9939  1.9939 sum   3.9878
    4    C  MulP   2.0002  2.0002 sum   4.0005
    5    C  MulP   1.9983  1.9983 sum   3.9965
    6    C  MulP   1.9991  1.9991 sum   3.9982
    7    C  MulP   1.9991  1.9991 sum   3.9983
    8    C  MulP   1.9988  1.9988 sum   3.9977
    9    C  MulP   1.9987  1.9987 sum   3.9975
   10    C  MulP   1.9986  1.9986 sum   3.9972
   11    C  MulP   1.9852  1.9852 sum   3.9705
   12    C  MulP   1.9923  1.9923 sum   3.9846
   13    C  MulP   1.9970  1.9970 sum   3.9941
   14    C  MulP   1.9992  1.9992 sum   3.9984
   15    C  MulP   1.9996  1.9996 sum   3.9993
   16    C  MulP   1.9990  1.9990 sum   3.9979
   17    C  MulP   1.9962  1.9962 sum   3.9924
   18    C  MulP   2.0012  2.0012 sum   4.0024
   19    C  MulP   2.0145  2.0145 sum   4.0290
   20    C  MulP   1.6925  1.6925 sum   3.3850
     ..........
     ......

 Sum of MulP: up   =   243.00000 down          =   243.00000
              total=   486.00000 ideal(neutral)=   486.00000
<DFT>  Total Spin Moment (muB) =  0.000000000000
<DFT>  Mixing_weight= 0.050000000000
<DFT>  Uele   = -197.801238336971  dUele     =   1.000000000000
<DFT>  NormRD =    1.000000000000  Criterion =   0.000000010000

******************* MD= 1  SCF= 2 *******************
<Poisson>  Poisson's equation using FFT...
<Set_Hamiltonian>  Hamiltonian matrix for VNA+dVH+Vxc...
<Band>  Solving the eigenvalue problem...
 KGrids1:  -0.43750  -0.31250  -0.18750  -0.06250   0.06250   0.18750   0.31250   0.43750 
 KGrids2:  -0.43750  -0.31250  -0.18750  -0.06250   0.06250   0.18750   0.31250   0.43750 
 KGrids3:   0.00000 
<Band_DFT>  Eigen, time=10.608069
<Band_DFT>  DM, time=0.000000
    1    C  MulP   2.0001  2.0001 sum   4.0002
    2    C  MulP   1.9991  1.9991 sum   3.9983
    3    C  MulP   1.9939  1.9939 sum   3.9878
    4    C  MulP   2.0002  2.0002 sum   4.0005
    5    C  MulP   1.9983  1.9983 sum   3.9965
    6    C  MulP   1.9991  1.9991 sum   3.9982
    7    C  MulP   1.9991  1.9991 sum   3.9983
    8    C  MulP   1.9988  1.9988 sum   3.9977
    9    C  MulP   1.9987  1.9987 sum   3.9975
   10    C  MulP   1.9986  1.9986 sum   3.9972
   11    C  MulP   1.9852  1.9852 sum   3.9705
   12    C  MulP   1.9923  1.9923 sum   3.9846
   13    C  MulP   1.9970  1.9970 sum   3.9941
   14    C  MulP   1.9992  1.9992 sum   3.9984
   15    C  MulP   1.9996  1.9996 sum   3.9993
   16    C  MulP   1.9990  1.9990 sum   3.9979
   17    C  MulP   1.9962  1.9962 sum   3.9924
   18    C  MulP   2.0012  2.0012 sum   4.0024
   19    C  MulP   2.0145  2.0145 sum   4.0290
   20    C  MulP   1.6925  1.6925 sum   3.3850
     ..........
     ......

 Sum of MulP: up   =   243.00000 down          =   243.00000
              total=   486.00000 ideal(neutral)=   486.00000
<DFT>  Total Spin Moment (muB) =  0.000000000000
<DFT>  Mixing_weight= 0.010000000000
<DFT>  Uele   = -197.801238336971  dUele     =   0.000000000000
<DFT>  NormRD =   10.423319659771  Criterion =   0.000000010000

******************* MD= 1  SCF= 3 *******************
<Poisson>  Poisson's equation using FFT...
<Set_Hamiltonian>  Hamiltonian matrix for VNA+dVH+Vxc...
<Band>  Solving the eigenvalue problem...
 KGrids1:  -0.43750  -0.31250  -0.18750  -0.06250   0.06250   0.18750   0.31250   0.43750 
 KGrids2:  -0.43750  -0.31250  -0.18750  -0.06250   0.06250   0.18750   0.31250   0.43750 
 KGrids3:   0.00000 
<Band_DFT>  Eigen, time=10.603760
<Band_DFT>  DM, time=0.000000
    1    C  MulP   2.0000  2.0000 sum   4.0000
    2    C  MulP   1.9990  1.9990 sum   3.9980
    3    C  MulP   1.9938  1.9938 sum   3.9877
    4    C  MulP   2.0001  2.0001 sum   4.0003
    5    C  MulP   1.9982  1.9982 sum   3.9965
    6    C  MulP   1.9991  1.9991 sum   3.9981
    7    C  MulP   1.9991  1.9991 sum   3.9982
    8    C  MulP   1.9988  1.9988 sum   3.9977
    9    C  MulP   1.9987  1.9987 sum   3.9974
   10    C  MulP   1.9984  1.9984 sum   3.9968
   11    C  MulP   1.9851  1.9851 sum   3.9703
   12    C  MulP   1.9925  1.9925 sum   3.9849
   13    C  MulP   1.9970  1.9970 sum   3.9940
   14    C  MulP   1.9992  1.9992 sum   3.9983
   15    C  MulP   1.9996  1.9996 sum   3.9992
   16    C  MulP   1.9989  1.9989 sum   3.9979
   17    C  MulP   1.9962  1.9962 sum   3.9925
   18    C  MulP   2.0010  2.0010 sum   4.0020
   19    C  MulP   2.0146  2.0146 sum   4.0292
   20    C  MulP   1.6986  1.6986 sum   3.3971
     ..........
     ......

 Sum of MulP: up   =   243.00000 down          =   243.00000
              total=   486.00000 ideal(neutral)=   486.00000
<DFT>  Total Spin Moment (muB) =  0.000000000000
<DFT>  Mixing_weight= 0.300000000000
<DFT>  Uele   = -198.186360913344  dUele     =   0.385122576373
<DFT>  NormRD =   10.286627609329  Criterion =   0.000000010000

******************* MD= 1  SCF= 4 *******************
<Poisson>  Poisson's equation using FFT...
<Set_Hamiltonian>  Hamiltonian matrix for VNA+dVH+Vxc...
<Band>  Solving the eigenvalue problem...
 KGrids1:  -0.43750  -0.31250  -0.18750  -0.06250   0.06250   0.18750   0.31250   0.43750 
 KGrids2:  -0.43750  -0.31250  -0.18750  -0.06250   0.06250   0.18750   0.31250   0.43750 
 KGrids3:   0.00000 
<Band_DFT>  Eigen, time=10.610680
<Band_DFT>  DM, time=0.000001
    1    C  MulP   1.9964  1.9964 sum   3.9928
    2    C  MulP   1.9949  1.9949 sum   3.9899
    3    C  MulP   1.9929  1.9929 sum   3.9857
    4    C  MulP   1.9960  1.9960 sum   3.9920
    5    C  MulP   1.9978  1.9978 sum   3.9956
    6    C  MulP   1.9967  1.9967 sum   3.9934
    7    C  MulP   1.9965  1.9965 sum   3.9930
    8    C  MulP   1.9982  1.9982 sum   3.9963
    9    C  MulP   1.9966  1.9966 sum   3.9932
   10    C  MulP   1.9924  1.9924 sum   3.9847
   11    C  MulP   1.9831  1.9831 sum   3.9661
   12    C  MulP   1.9970  1.9970 sum   3.9940
   13    C  MulP   1.9953  1.9953 sum   3.9906
   14    C  MulP   1.9964  1.9964 sum   3.9927
   15    C  MulP   1.9988  1.9988 sum   3.9976
   16    C  MulP   1.9968  1.9968 sum   3.9936
   17    C  MulP   1.9972  1.9972 sum   3.9943
   18    C  MulP   1.9956  1.9956 sum   3.9913
   19    C  MulP   2.0252  2.0252 sum   4.0505
   20    C  MulP   1.8922  1.8922 sum   3.7844
     ..........
     ......

 Sum of MulP: up   =   243.00000 down          =   243.00000
              total=   486.00000 ideal(neutral)=   486.00000
<DFT>  Total Spin Moment (muB) =  0.000000000000
<DFT>  Mixing_weight= 0.300000000000
<DFT>  Uele   = -209.676946628554  dUele     =  11.490585715209
<DFT>  NormRD =    6.443941732110  Criterion =   0.000000010000

******************* MD= 1  SCF= 5 *******************
<Poisson>  Poisson's equation using FFT...
<Set_Hamiltonian>  Hamiltonian matrix for VNA+dVH+Vxc...
<Band>  Solving the eigenvalue problem...
 KGrids1:  -0.43750  -0.31250  -0.18750  -0.06250   0.06250   0.18750   0.31250   0.43750 
 KGrids2:  -0.43750  -0.31250  -0.18750  -0.06250   0.06250   0.18750   0.31250   0.43750 
 KGrids3:   0.00000 
<Band_DFT>  Eigen, time=10.603566
<Band_DFT>  DM, time=0.000000
    1    C  MulP   1.9989  1.9989 sum   3.9979
    2    C  MulP   1.9974  1.9974 sum   3.9948
    3    C  MulP   1.9951  1.9951 sum   3.9901
    4    C  MulP   1.9992  1.9992 sum   3.9984
    5    C  MulP   1.9992  1.9992 sum   3.9984
    6    C  MulP   1.9993  1.9993 sum   3.9985
    7    C  MulP   1.9995  1.9995 sum   3.9990
    8    C  MulP   1.9990  1.9990 sum   3.9980
    9    C  MulP   1.9994  1.9994 sum   3.9989
   10    C  MulP   1.9953  1.9953 sum   3.9907
   11    C  MulP   1.9842  1.9842 sum   3.9683
   12    C  MulP   2.0001  2.0001 sum   4.0002
   13    C  MulP   1.9990  1.9990 sum   3.9980
   14    C  MulP   1.9993  1.9993 sum   3.9986
   15    C  MulP   1.9992  1.9992 sum   3.9984
   16    C  MulP   1.9993  1.9993 sum   3.9986
   17    C  MulP   1.9992  1.9992 sum   3.9984
   18    C  MulP   1.9964  1.9964 sum   3.9928
   19    C  MulP   2.0307  2.0307 sum   4.0614
   20    C  MulP   1.9080  1.9080 sum   3.8159
     ..........
     ......

 Sum of MulP: up   =   243.00000 down          =   243.00000
              total=   486.00000 ideal(neutral)=   486.00000
<DFT>  Total Spin Moment (muB) =  0.000000000000
<DFT>  Mixing_weight= 0.300000000000
<DFT>  Uele   = -217.474201256002  dUele     =   7.797254627448
<DFT>  NormRD =    4.317400376787  Criterion =   0.000000010000

******************* MD= 1  SCF= 6 *******************
<Poisson>  Poisson's equation using FFT...
<Set_Hamiltonian>  Hamiltonian matrix for VNA+dVH+Vxc...
<Band>  Solving the eigenvalue problem...
 KGrids1:  -0.43750  -0.31250  -0.18750  -0.06250   0.06250   0.18750   0.31250   0.43750 
 KGrids2:  -0.43750  -0.31250  -0.18750  -0.06250   0.06250   0.18750   0.31250   0.43750 
 KGrids3:   0.00000 
<Band_DFT>  Eigen, time=10.606380
<Band_DFT>  DM, time=0.000000
    1    C  MulP   1.9980  1.9980 sum   3.9960
    2    C  MulP   1.9964  1.9964 sum   3.9928
    3    C  MulP   1.9950  1.9950 sum   3.9900
    4    C  MulP   1.9978  1.9978 sum   3.9957
    5    C  MulP   1.9993  1.9993 sum   3.9987
    6    C  MulP   1.9984  1.9984 sum   3.9969
    7    C  MulP   1.9984  1.9984 sum   3.9968
    8    C  MulP   1.9991  1.9991 sum   3.9982
    9    C  MulP   1.9983  1.9983 sum   3.9967
   10    C  MulP   1.9944  1.9944 sum   3.9888
   11    C  MulP   1.9827  1.9827 sum   3.9654
   12    C  MulP   1.9994  1.9994 sum   3.9989
   13    C  MulP   1.9984  1.9984 sum   3.9968
   14    C  MulP   1.9982  1.9982 sum   3.9964
   15    C  MulP   1.9995  1.9995 sum   3.9989
   16    C  MulP   1.9986  1.9986 sum   3.9971
   17    C  MulP   1.9990  1.9990 sum   3.9981
   18    C  MulP   1.9944  1.9944 sum   3.9888
   19    C  MulP   2.0278  2.0278 sum   4.0555
   20    C  MulP   1.9113  1.9113 sum   3.8226
     ..........
     ......

 Sum of MulP: up   =   243.00000 down          =   243.00000
              total=   486.00000 ideal(neutral)=   486.00000
<DFT>  Total Spin Moment (muB) =  0.000000000000
<DFT>  Mixing_weight= 0.300000000000
<DFT>  Uele   = -222.501064224967  dUele     =   5.026862968965
<DFT>  NormRD =    2.920100270008  Criterion =   0.000000010000

******************* MD= 1  SCF= 7 *******************
<Poisson>  Poisson's equation using FFT...
<Set_Hamiltonian>  Hamiltonian matrix for VNA+dVH+Vxc...
<Band>  Solving the eigenvalue problem...
 KGrids1:  -0.43750  -0.31250  -0.18750  -0.06250   0.06250   0.18750   0.31250   0.43750 
 KGrids2:  -0.43750  -0.31250  -0.18750  -0.06250   0.06250   0.18750   0.31250   0.43750 
 KGrids3:   0.00000 
<Band_DFT>  Eigen, time=10.599342
<Band_DFT>  DM, time=0.000000
    1    C  MulP   1.9993  1.9993 sum   3.9986
    2    C  MulP   1.9977  1.9977 sum   3.9954
    3    C  MulP   1.9955  1.9955 sum   3.9910
    4    C  MulP   1.9996  1.9996 sum   3.9992
    5    C  MulP   1.9999  1.9999 sum   3.9998
    6    C  MulP   1.9998  1.9998 sum   3.9996
    7    C  MulP   2.0000  2.0000 sum   3.9999
    8    C  MulP   1.9996  1.9996 sum   3.9992
    9    C  MulP   1.9998  1.9998 sum   3.9996
   10    C  MulP   1.9951  1.9951 sum   3.9902
   11    C  MulP   1.9839  1.9839 sum   3.9677
   12    C  MulP   2.0001  2.0001 sum   4.0003
   13    C  MulP   1.9999  1.9999 sum   3.9997
   14    C  MulP   1.9998  1.9998 sum   3.9996
   15    C  MulP   1.9999  1.9999 sum   3.9997
   16    C  MulP   1.9998  1.9998 sum   3.9997
   17    C  MulP   1.9997  1.9997 sum   3.9994
   18    C  MulP   1.9944  1.9944 sum   3.9887
   19    C  MulP   2.0266  2.0266 sum   4.0531
   20    C  MulP   1.9082  1.9082 sum   3.8164
     ..........
     ......

 Sum of MulP: up   =   243.00000 down          =   243.00000
              total=   486.00000 ideal(neutral)=   486.00000
<DFT>  Total Spin Moment (muB) =  0.000000000000
<DFT>  Mixing_weight= 0.300000000000
<DFT>  Uele   = -225.870990460029  dUele     =   3.369926235062
<DFT>  NormRD =    1.989442236975  Criterion =   0.000000010000

******************* MD= 1  SCF= 8 *******************
<Poisson>  Poisson's equation using FFT...
<Set_Hamiltonian>  Hamiltonian matrix for VNA+dVH+Vxc...
<Band>  Solving the eigenvalue problem...
 KGrids1:  -0.43750  -0.31250  -0.18750  -0.06250   0.06250   0.18750   0.31250   0.43750 
 KGrids2:  -0.43750  -0.31250  -0.18750  -0.06250   0.06250   0.18750   0.31250   0.43750 
 KGrids3:   0.00000 
<Band_DFT>  Eigen, time=10.620538
<Band_DFT>  DM, time=0.000000
    1    C  MulP   1.9986  1.9986 sum   3.9973
    2    C  MulP   1.9971  1.9971 sum   3.9942
    3    C  MulP   1.9955  1.9955 sum   3.9910
    4    C  MulP   1.9986  1.9986 sum   3.9972
    5    C  MulP   1.9999  1.9999 sum   3.9997
    6    C  MulP   1.9992  1.9992 sum   3.9983
    7    C  MulP   1.9992  1.9992 sum   3.9984
    8    C  MulP   1.9996  1.9996 sum   3.9992
    9    C  MulP   1.9990  1.9990 sum   3.9980
   10    C  MulP   1.9946  1.9946 sum   3.9892
   11    C  MulP   1.9833  1.9833 sum   3.9665
   12    C  MulP   1.9995  1.9995 sum   3.9991
   13    C  MulP   1.9992  1.9992 sum   3.9985
   14    C  MulP   1.9990  1.9990 sum   3.9980
   15    C  MulP   1.9999  1.9999 sum   3.9999
   16    C  MulP   1.9993  1.9993 sum   3.9986
   17    C  MulP   1.9994  1.9994 sum   3.9988
   18    C  MulP   1.9933  1.9933 sum   3.9866
   19    C  MulP   2.0262  2.0262 sum   4.0524
   20    C  MulP   1.9085  1.9085 sum   3.8170
     ..........
     ......

 Sum of MulP: up   =   243.00000 down          =   243.00000
              total=   486.00000 ideal(neutral)=   486.00000
<DFT>  Total Spin Moment (muB) =  0.000000000000
<DFT>  Mixing_weight= 0.300000000000
<DFT>  Uele   = -228.110667296303  dUele     =   2.239676836274
<DFT>  NormRD =    1.361195745927  Criterion =   0.000000010000

******************* MD= 1  SCF= 9 *******************
<Poisson>  Poisson's equation using FFT...
<Set_Hamiltonian>  Hamiltonian matrix for VNA+dVH+Vxc...
<Band>  Solving the eigenvalue problem...
 KGrids1:  -0.43750  -0.31250  -0.18750  -0.06250   0.06250   0.18750   0.31250   0.43750 
 KGrids2:  -0.43750  -0.31250  -0.18750  -0.06250   0.06250   0.18750   0.31250   0.43750 
 KGrids3:   0.00000 
<Band_DFT>  Eigen, time=10.606762
<Band_DFT>  DM, time=0.000000
    1    C  MulP   1.9994  1.9994 sum   3.9989
    2    C  MulP   1.9979  1.9979 sum   3.9957
    3    C  MulP   1.9958  1.9958 sum   3.9916
    4    C  MulP   1.9997  1.9997 sum   3.9993
    5    C  MulP   2.0002  2.0002 sum   4.0003
    6    C  MulP   1.9999  1.9999 sum   3.9999
    7    C  MulP   2.0001  2.0001 sum   4.0002
    8    C  MulP   1.9998  1.9998 sum   3.9997
    9    C  MulP   1.9999  1.9999 sum   3.9998
   10    C  MulP   1.9950  1.9950 sum   3.9899
   11    C  MulP   1.9840  1.9840 sum   3.9681
   12    C  MulP   2.0000  2.0000 sum   3.9999
   13    C  MulP   2.0001  2.0001 sum   4.0001
   14    C  MulP   2.0000  2.0000 sum   3.9999
   15    C  MulP   2.0001  2.0001 sum   4.0003
   16    C  MulP   2.0000  2.0000 sum   4.0000
   17    C  MulP   1.9998  1.9998 sum   3.9995
   18    C  MulP   1.9935  1.9935 sum   3.9870
   19    C  MulP   2.0254  2.0254 sum   4.0509
   20    C  MulP   1.9070  1.9070 sum   3.8140
     ..........
     ......

 Sum of MulP: up   =   243.00000 down          =   243.00000
              total=   486.00000 ideal(neutral)=   486.00000
<DFT>  Total Spin Moment (muB) =  0.000000000000
<DFT>  Mixing_weight= 0.300000000000
<DFT>  Uele   = -229.704335707060  dUele     =   1.593668410757
<DFT>  NormRD =    0.936331813228  Criterion =   0.000000010000

******************* MD= 1  SCF=10 *******************
<Poisson>  Poisson's equation using FFT...
<Set_Hamiltonian>  Hamiltonian matrix for VNA+dVH+Vxc...
<Band>  Solving the eigenvalue problem...
 KGrids1:  -0.43750  -0.31250  -0.18750  -0.06250   0.06250   0.18750   0.31250   0.43750 
 KGrids2:  -0.43750  -0.31250  -0.18750  -0.06250   0.06250   0.18750   0.31250   0.43750 
 KGrids3:   0.00000 
<Band_DFT>  Eigen, time=10.589382
<Band_DFT>  DM, time=0.000000
    1    C  MulP   1.9990  1.9990 sum   3.9979
    2    C  MulP   1.9974  1.9974 sum   3.9949
    3    C  MulP   1.9957  1.9957 sum   3.9915
    4    C  MulP   1.9990  1.9990 sum   3.9980
    5    C  MulP   2.0001  2.0001 sum   4.0002
    6    C  MulP   1.9995  1.9995 sum   3.9990
    7    C  MulP   1.9996  1.9996 sum   3.9991
    8    C  MulP   1.9998  1.9998 sum   3.9996
    9    C  MulP   1.9994  1.9994 sum   3.9987
   10    C  MulP   1.9947  1.9947 sum   3.9893
   11    C  MulP   1.9836  1.9836 sum   3.9673
   12    C  MulP   1.9996  1.9996 sum   3.9992
   13    C  MulP   1.9996  1.9996 sum   3.9992
   14    C  MulP   1.9994  1.9994 sum   3.9988
   15    C  MulP   2.0002  2.0002 sum   4.0003
   16    C  MulP   1.9996  1.9996 sum   3.9992
   17    C  MulP   1.9996  1.9996 sum   3.9992
   18    C  MulP   1.9930  1.9930 sum   3.9860
   19    C  MulP   2.0252  2.0252 sum   4.0505
   20    C  MulP   1.9074  1.9074 sum   3.8147
     ..........
     ......

 Sum of MulP: up   =   243.00000 down          =   243.00000
              total=   486.00000 ideal(neutral)=   486.00000
<DFT>  Total Spin Moment (muB) =  0.000000000000
<DFT>  Mixing_weight= 0.300000000000
<DFT>  Uele   = -230.821229603760  dUele     =   1.116893896699
<DFT>  NormRD =    0.646518101345  Criterion =   0.000000010000

******************* MD= 1  SCF=11 *******************
<Poisson>  Poisson's equation using FFT...
<Set_Hamiltonian>  Hamiltonian matrix for VNA+dVH+Vxc...
<Band>  Solving the eigenvalue problem...
 KGrids1:  -0.43750  -0.31250  -0.18750  -0.06250   0.06250   0.18750   0.31250   0.43750 
 KGrids2:  -0.43750  -0.31250  -0.18750  -0.06250   0.06250   0.18750   0.31250   0.43750 
 KGrids3:   0.00000 
<Band_DFT>  Eigen, time=10.590539
<Band_DFT>  DM, time=0.000000
    1    C  MulP   1.9994  1.9994 sum   3.9989
    2    C  MulP   1.9979  1.9979 sum   3.9958
    3    C  MulP   1.9959  1.9959 sum   3.9918
    4    C  MulP   1.9996  1.9996 sum   3.9993
    5    C  MulP   2.0003  2.0003 sum   4.0005
    6    C  MulP   2.0000  2.0000 sum   4.0000
    7    C  MulP   2.0001  2.0001 sum   4.0002
    8    C  MulP   1.9999  1.9999 sum   3.9999
    9    C  MulP   1.9999  1.9999 sum   3.9998
   10    C  MulP   1.9949  1.9949 sum   3.9898
   11    C  MulP   1.9841  1.9841 sum   3.9682
   12    C  MulP   1.9999  1.9999 sum   3.9998
   13    C  MulP   2.0001  2.0001 sum   4.0002
   14    C  MulP   2.0000  2.0000 sum   3.9999
   15    C  MulP   2.0003  2.0003 sum   4.0005
   16    C  MulP   2.0000  2.0000 sum   4.0001
   17    C  MulP   1.9998  1.9998 sum   3.9996
   18    C  MulP   1.9932  1.9932 sum   3.9864
   19    C  MulP   2.0248  2.0248 sum   4.0496
   20    C  MulP   1.9065  1.9065 sum   3.8131
     ..........
     ......

 Sum of MulP: up   =   243.00000 down          =   243.00000
              total=   486.00000 ideal(neutral)=   486.00000
<DFT>  Total Spin Moment (muB) =  0.000000000000
<DFT>  Mixing_weight= 0.300000000000
<DFT>  Uele   = -231.670269707555  dUele     =   0.849040103795
<DFT>  NormRD =    0.448085756836  Criterion =   0.000000010000

******************* MD= 1  SCF=12 *******************
<Poisson>  Poisson's equation using FFT...
<Set_Hamiltonian>  Hamiltonian matrix for VNA+dVH+Vxc...
<Band>  Solving the eigenvalue problem...
 KGrids1:  -0.43750  -0.31250  -0.18750  -0.06250   0.06250   0.18750   0.31250   0.43750 
 KGrids2:  -0.43750  -0.31250  -0.18750  -0.06250   0.06250   0.18750   0.31250   0.43750 
 KGrids3:   0.00000 
<Band_DFT>  Eigen, time=10.592563
<Band_DFT>  DM, time=0.000000
    1    C  MulP   1.9991  1.9991 sum   3.9983
    2    C  MulP   1.9976  1.9976 sum   3.9952
    3    C  MulP   1.9959  1.9959 sum   3.9918
    4    C  MulP   1.9992  1.9992 sum   3.9984
    5    C  MulP   2.0002  2.0002 sum   4.0004
    6    C  MulP   1.9997  1.9997 sum   3.9994
    7    C  MulP   1.9997  1.9997 sum   3.9995
    8    C  MulP   1.9999  1.9999 sum   3.9998
    9    C  MulP   1.9995  1.9995 sum   3.9991
   10    C  MulP   1.9947  1.9947 sum   3.9894
   11    C  MulP   1.9838  1.9838 sum   3.9677
   12    C  MulP   1.9997  1.9997 sum   3.9994
   13    C  MulP   1.9998  1.9998 sum   3.9996
   14    C  MulP   1.9996  1.9996 sum   3.9992
   15    C  MulP   2.0003  2.0003 sum   4.0005
   16    C  MulP   1.9998  1.9998 sum   3.9996
   17    C  MulP   1.9997  1.9997 sum   3.9993
   18    C  MulP   1.9929  1.9929 sum   3.9858
   19    C  MulP   2.0247  2.0247 sum   4.0495
   20    C  MulP   1.9068  1.9068 sum   3.8137
     ..........
     ......

 Sum of MulP: up   =   243.00000 down          =   243.00000
              total=   486.00000 ideal(neutral)=   486.00000
<DFT>  Total Spin Moment (muB) =  0.000000000000
<DFT>  Mixing_weight= 0.300000000000
<DFT>  Uele   = -232.299597357866  dUele     =   0.629327650311
<DFT>  NormRD =    0.311956611140  Criterion =   0.000000010000

******************* MD= 1  SCF=13 *******************
<Poisson>  Poisson's equation using FFT...
<Set_Hamiltonian>  Hamiltonian matrix for VNA+dVH+Vxc...
<Band>  Solving the eigenvalue problem...
 KGrids1:  -0.43750  -0.31250  -0.18750  -0.06250   0.06250   0.18750   0.31250   0.43750 
 KGrids2:  -0.43750  -0.31250  -0.18750  -0.06250   0.06250   0.18750   0.31250   0.43750 
 KGrids3:   0.00000 
<Band_DFT>  Eigen, time=10.625489
<Band_DFT>  DM, time=0.000000
    1    C  MulP   1.9994  1.9994 sum   3.9989
    2    C  MulP   1.9979  1.9979 sum   3.9958
    3    C  MulP   1.9960  1.9960 sum   3.9919
    4    C  MulP   1.9996  1.9996 sum   3.9992
    5    C  MulP   2.0003  2.0003 sum   4.0006
    6    C  MulP   2.0000  2.0000 sum   3.9999
    7    C  MulP   2.0001  2.0001 sum   4.0002
    8    C  MulP   2.0000  2.0000 sum   4.0000
    9    C  MulP   1.9999  1.9999 sum   3.9997
   10    C  MulP   1.9949  1.9949 sum   3.9898
   11    C  MulP   1.9841  1.9841 sum   3.9683
   12    C  MulP   1.9999  1.9999 sum   3.9998
   13    C  MulP   2.0001  2.0001 sum   4.0002
   14    C  MulP   1.9999  1.9999 sum   3.9999
   15    C  MulP   2.0003  2.0003 sum   4.0006
   16    C  MulP   2.0000  2.0000 sum   4.0001
   17    C  MulP   1.9998  1.9998 sum   3.9996
   18    C  MulP   1.9931  1.9931 sum   3.9861
   19    C  MulP   2.0245  2.0245 sum   4.0490
   20    C  MulP   1.9064  1.9064 sum   3.8127
     ..........
     ......

 Sum of MulP: up   =   243.00000 down          =   243.00000
              total=   486.00000 ideal(neutral)=   486.00000
<DFT>  Total Spin Moment (muB) =  0.000000000000
<DFT>  Mixing_weight= 0.300000000000
<DFT>  Uele   = -232.807134504988  dUele     =   0.507537147122
<DFT>  NormRD =    0.217822926663  Criterion =   0.000000010000

******************* MD= 1  SCF=14 *******************
<Poisson>  Poisson's equation using FFT...
<Set_Hamiltonian>  Hamiltonian matrix for VNA+dVH+Vxc...
<Band>  Solving the eigenvalue problem...
 KGrids1:  -0.43750  -0.31250  -0.18750  -0.06250   0.06250   0.18750   0.31250   0.43750 
 KGrids2:  -0.43750  -0.31250  -0.18750  -0.06250   0.06250   0.18750   0.31250   0.43750 
 KGrids3:   0.00000 
<Band_DFT>  Eigen, time=10.597339
<Band_DFT>  DM, time=0.000000
    1    C  MulP   1.9992  1.9992 sum   3.9985
    2    C  MulP   1.9977  1.9977 sum   3.9954
    3    C  MulP   1.9959  1.9959 sum   3.9919
    4    C  MulP   1.9993  1.9993 sum   3.9987
    5    C  MulP   2.0003  2.0003 sum   4.0005
    6    C  MulP   1.9998  1.9998 sum   3.9996
    7    C  MulP   1.9999  1.9999 sum   3.9997
    8    C  MulP   1.9999  1.9999 sum   3.9999
    9    C  MulP   1.9996  1.9996 sum   3.9993
   10    C  MulP   1.9948  1.9948 sum   3.9895
   11    C  MulP   1.9840  1.9840 sum   3.9679
   12    C  MulP   1.9998  1.9998 sum   3.9995
   13    C  MulP   1.9999  1.9999 sum   3.9998
   14    C  MulP   1.9997  1.9997 sum   3.9994
   15    C  MulP   2.0003  2.0003 sum   4.0006
   16    C  MulP   1.9999  1.9999 sum   3.9997
   17    C  MulP   1.9997  1.9997 sum   3.9994
   18    C  MulP   1.9929  1.9929 sum   3.9858
   19    C  MulP   2.0244  2.0244 sum   4.0489
   20    C  MulP   1.9066  1.9066 sum   3.8131
     ..........
     ......

 Sum of MulP: up   =   243.00000 down          =   243.00000
              total=   486.00000 ideal(neutral)=   486.00000
<DFT>  Total Spin Moment (muB) =  0.000000000000
<DFT>  Mixing_weight= 0.300000000000
<DFT>  Uele   = -233.202714661298  dUele     =   0.395580156310
<DFT>  NormRD =    0.153150620426  Criterion =   0.000000010000

******************* MD= 1  SCF=15 *******************
<Poisson>  Poisson's equation using FFT...
<Set_Hamiltonian>  Hamiltonian matrix for VNA+dVH+Vxc...
<Band>  Solving the eigenvalue problem...
 KGrids1:  -0.43750  -0.31250  -0.18750  -0.06250   0.06250   0.18750   0.31250   0.43750 
 KGrids2:  -0.43750  -0.31250  -0.18750  -0.06250   0.06250   0.18750   0.31250   0.43750 
 KGrids3:   0.00000 
<Band_DFT>  Eigen, time=10.584739
<Band_DFT>  DM, time=0.000000
    1    C  MulP   1.9994  1.9994 sum   3.9988
    2    C  MulP   1.9979  1.9979 sum   3.9958
    3    C  MulP   1.9960  1.9960 sum   3.9920
    4    C  MulP   1.9996  1.9996 sum   3.9991
    5    C  MulP   2.0003  2.0003 sum   4.0006
    6    C  MulP   2.0000  2.0000 sum   3.9999
    7    C  MulP   2.0001  2.0001 sum   4.0001
    8    C  MulP   2.0000  2.0000 sum   4.0000
    9    C  MulP   1.9998  1.9998 sum   3.9997
   10    C  MulP   1.9949  1.9949 sum   3.9897
   11    C  MulP   1.9842  1.9842 sum   3.9683
   12    C  MulP   1.9999  1.9999 sum   3.9998
   13    C  MulP   2.0001  2.0001 sum   4.0002
   14    C  MulP   1.9999  1.9999 sum   3.9999
   15    C  MulP   2.0003  2.0003 sum   4.0007
   16    C  MulP   2.0000  2.0000 sum   4.0001
   17    C  MulP   1.9998  1.9998 sum   3.9996
   18    C  MulP   1.9930  1.9930 sum   3.9860
   19    C  MulP   2.0243  2.0243 sum   4.0486
   20    C  MulP   1.9063  1.9063 sum   3.8126
     ..........
     ......

 Sum of MulP: up   =   243.00000 down          =   243.00000
              total=   486.00000 ideal(neutral)=   486.00000
<DFT>  Total Spin Moment (muB) =  0.000000000000
<DFT>  Mixing_weight= 0.030000000000
<DFT>  Uele   = -233.535943773223  dUele     =   0.333229111925
<DFT>  NormRD =    0.109186853603  Criterion =   0.000000010000

******************* MD= 1  SCF=16 *******************
<Poisson>  Poisson's equation using FFT...
<Set_Hamiltonian>  Hamiltonian matrix for VNA+dVH+Vxc...
<Band>  Solving the eigenvalue problem...
 KGrids1:  -0.43750  -0.31250  -0.18750  -0.06250   0.06250   0.18750   0.31250   0.43750 
 KGrids2:  -0.43750  -0.31250  -0.18750  -0.06250   0.06250   0.18750   0.31250   0.43750 
 KGrids3:   0.00000 
<Band_DFT>  Eigen, time=10.603422
<Band_DFT>  DM, time=0.000001
    1    C  MulP   1.9977  1.9977 sum   3.9954
    2    C  MulP   1.9962  1.9962 sum   3.9925
    3    C  MulP   1.9954  1.9954 sum   3.9907
    4    C  MulP   1.9972  1.9972 sum   3.9945
    5    C  MulP   1.9996  1.9996 sum   3.9993
    6    C  MulP   1.9983  1.9983 sum   3.9966
    7    C  MulP   1.9981  1.9981 sum   3.9962
    8    C  MulP   1.9994  1.9994 sum   3.9988
    9    C  MulP   1.9980  1.9980 sum   3.9960
   10    C  MulP   1.9941  1.9941 sum   3.9881
   11    C  MulP   1.9827  1.9827 sum   3.9654
   12    C  MulP   1.9986  1.9986 sum   3.9973
   13    C  MulP   1.9984  1.9984 sum   3.9968
   14    C  MulP   1.9979  1.9979 sum   3.9958
   15    C  MulP   1.9999  1.9999 sum   3.9999
   16    C  MulP   1.9985  1.9985 sum   3.9969
   17    C  MulP   1.9991  1.9991 sum   3.9982
   18    C  MulP   1.9925  1.9925 sum   3.9850
   19    C  MulP   2.0254  2.0254 sum   4.0507
   20    C  MulP   1.9084  1.9084 sum   3.8169
     ..........
     ......

 Sum of MulP: up   =   243.00000 down          =   243.00000
              total=   486.00000 ideal(neutral)=   486.00000
<DFT>  Total Spin Moment (muB) =  0.000000000000
<DFT>  Mixing_weight= 0.030000000000
<DFT>  Uele   = -235.195629083417  dUele     =   1.659685310194
<DFT>  NormRD =    0.184928558712  Criterion =   0.000000010000

******************* MD= 1  SCF=17 *******************
<Poisson>  Poisson's equation using FFT...
<Set_Hamiltonian>  Hamiltonian matrix for VNA+dVH+Vxc...
<Band>  Solving the eigenvalue problem...
 KGrids1:  -0.43750  -0.31250  -0.18750  -0.06250   0.06250   0.18750   0.31250   0.43750 
 KGrids2:  -0.43750  -0.31250  -0.18750  -0.06250   0.06250   0.18750   0.31250   0.43750 
 KGrids3:   0.00000 
<Band_DFT>  Eigen, time=10.593332
<Band_DFT>  DM, time=0.000001
    1    C  MulP   1.9998  1.9998 sum   3.9996
    2    C  MulP   1.9982  1.9982 sum   3.9965
    3    C  MulP   1.9963  1.9963 sum   3.9926
    4    C  MulP   2.0001  2.0001 sum   4.0001
    5    C  MulP   2.0006  2.0006 sum   4.0013
    6    C  MulP   2.0003  2.0003 sum   4.0006
    7    C  MulP   2.0005  2.0005 sum   4.0009
    8    C  MulP   2.0003  2.0003 sum   4.0006
    9    C  MulP   2.0002  2.0002 sum   4.0003
   10    C  MulP   1.9950  1.9950 sum   3.9899
   11    C  MulP   1.9843  1.9843 sum   3.9687
   12    C  MulP   2.0002  2.0002 sum   4.0004
   13    C  MulP   2.0005  2.0005 sum   4.0010
   14    C  MulP   2.0004  2.0004 sum   4.0007
   15    C  MulP   2.0006  2.0006 sum   4.0012
   16    C  MulP   2.0004  2.0004 sum   4.0008
   17    C  MulP   2.0000  2.0000 sum   3.9999
   18    C  MulP   1.9929  1.9929 sum   3.9857
   19    C  MulP   2.0234  2.0234 sum   4.0468
   20    C  MulP   1.9057  1.9057 sum   3.8114
     ..........
     ......

 Sum of MulP: up   =   243.00000 down          =   243.00000
              total=   486.00000 ideal(neutral)=   486.00000
<DFT>  Total Spin Moment (muB) =  0.000000000000
<DFT>  Mixing_weight= 0.030000000000
<DFT>  Uele   = -235.444833130168  dUele     =   0.249204046752
<DFT>  NormRD =    0.036927354914  Criterion =   0.000000010000

******************* MD= 1  SCF=18 *******************
<Poisson>  Poisson's equation using FFT...
<Set_Hamiltonian>  Hamiltonian matrix for VNA+dVH+Vxc...
<Band>  Solving the eigenvalue problem...
 KGrids1:  -0.43750  -0.31250  -0.18750  -0.06250   0.06250   0.18750   0.31250   0.43750 
 KGrids2:  -0.43750  -0.31250  -0.18750  -0.06250   0.06250   0.18750   0.31250   0.43750 
 KGrids3:   0.00000 
<Band_DFT>  Eigen, time=10.588344
<Band_DFT>  DM, time=0.000000
    1    C  MulP   1.9991  1.9991 sum   3.9983
    2    C  MulP   1.9976  1.9976 sum   3.9953
    3    C  MulP   1.9957  1.9957 sum   3.9915
    4    C  MulP   1.9992  1.9992 sum   3.9983
    5    C  MulP   2.0001  2.0001 sum   4.0002
    6    C  MulP   1.9998  1.9998 sum   3.9995
    7    C  MulP   1.9998  1.9998 sum   3.9996
    8    C  MulP   1.9998  1.9998 sum   3.9996
    9    C  MulP   1.9996  1.9996 sum   3.9992
   10    C  MulP   1.9949  1.9949 sum   3.9898
   11    C  MulP   1.9842  1.9842 sum   3.9683
   12    C  MulP   1.9997  1.9997 sum   3.9994
   13    C  MulP   1.9998  1.9998 sum   3.9997
   14    C  MulP   1.9996  1.9996 sum   3.9991
   15    C  MulP   2.0001  2.0001 sum   4.0002
   16    C  MulP   1.9998  1.9998 sum   3.9996
   17    C  MulP   1.9998  1.9998 sum   3.9995
   18    C  MulP   1.9929  1.9929 sum   3.9858
   19    C  MulP   2.0243  2.0243 sum   4.0487
   20    C  MulP   1.9066  1.9066 sum   3.8133
     ..........
     ......

 Sum of MulP: up   =   243.00000 down          =   243.00000
              total=   486.00000 ideal(neutral)=   486.00000
<DFT>  Total Spin Moment (muB) =  0.000000000000
<DFT>  Mixing_weight= 0.030000000000
<DFT>  Uele   = -235.567297759954  dUele     =   0.122464629786
<DFT>  NormRD =    0.024248640214  Criterion =   0.000000010000

******************* MD= 1  SCF=19 *******************
<Poisson>  Poisson's equation using FFT...
<Set_Hamiltonian>  Hamiltonian matrix for VNA+dVH+Vxc...
<Band>  Solving the eigenvalue problem...
 KGrids1:  -0.43750  -0.31250  -0.18750  -0.06250   0.06250   0.18750   0.31250   0.43750 
 KGrids2:  -0.43750  -0.31250  -0.18750  -0.06250   0.06250   0.18750   0.31250   0.43750 
 KGrids3:   0.00000 
<Band_DFT>  Eigen, time=10.603679
<Band_DFT>  DM, time=0.000000
    1    C  MulP   1.9993  1.9993 sum   3.9986
    2    C  MulP   1.9978  1.9978 sum   3.9955
    3    C  MulP   1.9960  1.9960 sum   3.9919
    4    C  MulP   1.9994  1.9994 sum   3.9989
    5    C  MulP   2.0003  2.0003 sum   4.0006
    6    C  MulP   1.9999  1.9999 sum   3.9997
    7    C  MulP   1.9999  1.9999 sum   3.9999
    8    C  MulP   2.0000  2.0000 sum   3.9999
    9    C  MulP   1.9998  1.9998 sum   3.9996
   10    C  MulP   1.9948  1.9948 sum   3.9896
   11    C  MulP   1.9842  1.9842 sum   3.9683
   12    C  MulP   1.9998  1.9998 sum   3.9996
   13    C  MulP   2.0000  2.0000 sum   4.0000
   14    C  MulP   1.9998  1.9998 sum   3.9996
   15    C  MulP   2.0003  2.0003 sum   4.0007
   16    C  MulP   2.0000  2.0000 sum   3.9999
   17    C  MulP   1.9998  1.9998 sum   3.9995
   18    C  MulP   1.9931  1.9931 sum   3.9863
   19    C  MulP   2.0246  2.0246 sum   4.0492
   20    C  MulP   1.9063  1.9063 sum   3.8127
     ..........
     ......

 Sum of MulP: up   =   243.00000 down          =   243.00000
              total=   486.00000 ideal(neutral)=   486.00000
<DFT>  Total Spin Moment (muB) =  0.000000000000
<DFT>  Mixing_weight= 0.030000000000
<DFT>  Uele   = -235.593785284335  dUele     =   0.026487524381
<DFT>  NormRD =    0.010794470489  Criterion =   0.000000010000

******************* MD= 1  SCF=20 *******************
<Poisson>  Poisson's equation using FFT...
<Set_Hamiltonian>  Hamiltonian matrix for VNA+dVH+Vxc...
<Band>  Solving the eigenvalue problem...
 KGrids1:  -0.43750  -0.31250  -0.18750  -0.06250   0.06250   0.18750   0.31250   0.43750 
 KGrids2:  -0.43750  -0.31250  -0.18750  -0.06250   0.06250   0.18750   0.31250   0.43750 
 KGrids3:   0.00000 
<Band_DFT>  Eigen, time=10.585660
<Band_DFT>  DM, time=0.000000
    1    C  MulP   1.9994  1.9994 sum   3.9988
    2    C  MulP   1.9979  1.9979 sum   3.9958
    3    C  MulP   1.9961  1.9961 sum   3.9922
    4    C  MulP   1.9996  1.9996 sum   3.9991
    5    C  MulP   2.0004  2.0004 sum   4.0008
    6    C  MulP   2.0000  2.0000 sum   4.0000
    7    C  MulP   2.0001  2.0001 sum   4.0001
    8    C  MulP   2.0001  2.0001 sum   4.0001
    9    C  MulP   1.9998  1.9998 sum   3.9995
   10    C  MulP   1.9948  1.9948 sum   3.9897
   11    C  MulP   1.9840  1.9840 sum   3.9680
   12    C  MulP   1.9999  1.9999 sum   3.9998
   13    C  MulP   2.0001  2.0001 sum   4.0003
   14    C  MulP   1.9999  1.9999 sum   3.9999
   15    C  MulP   2.0004  2.0004 sum   4.0009
   16    C  MulP   2.0001  2.0001 sum   4.0001
   17    C  MulP   1.9998  1.9998 sum   3.9996
   18    C  MulP   1.9928  1.9928 sum   3.9856
   19    C  MulP   2.0236  2.0236 sum   4.0473
   20    C  MulP   1.9061  1.9061 sum   3.8122
     ..........
     ......

 Sum of MulP: up   =   243.00000 down          =   243.00000
              total=   486.00000 ideal(neutral)=   486.00000
<DFT>  Total Spin Moment (muB) =  0.000000000000
<DFT>  Mixing_weight= 0.030000000000
<DFT>  Uele   = -235.633706199319  dUele     =   0.039920914984
<DFT>  NormRD =    0.006106238335  Criterion =   0.000000010000

******************* MD= 1  SCF=21 *******************
<Poisson>  Poisson's equation using FFT...
<Set_Hamiltonian>  Hamiltonian matrix for VNA+dVH+Vxc...
<Band>  Solving the eigenvalue problem...
 KGrids1:  -0.43750  -0.31250  -0.18750  -0.06250   0.06250   0.18750   0.31250   0.43750 
 KGrids2:  -0.43750  -0.31250  -0.18750  -0.06250   0.06250   0.18750   0.31250   0.43750 
 KGrids3:   0.00000 
<Band_DFT>  Eigen, time=10.590456
<Band_DFT>  DM, time=0.000000
    1    C  MulP   1.9994  1.9994 sum   3.9988
    2    C  MulP   1.9979  1.9979 sum   3.9957
    3    C  MulP   1.9960  1.9960 sum   3.9920
    4    C  MulP   1.9995  1.9995 sum   3.9990
    5    C  MulP   2.0003  2.0003 sum   4.0007
    6    C  MulP   1.9999  1.9999 sum   3.9999
    7    C  MulP   2.0000  2.0000 sum   4.0000
    8    C  MulP   2.0000  2.0000 sum   4.0001
    9    C  MulP   1.9998  1.9998 sum   3.9996
   10    C  MulP   1.9949  1.9949 sum   3.9897
   11    C  MulP   1.9842  1.9842 sum   3.9684
   12    C  MulP   1.9999  1.9999 sum   3.9998
   13    C  MulP   2.0001  2.0001 sum   4.0002
   14    C  MulP   1.9999  1.9999 sum   3.9997
   15    C  MulP   2.0004  2.0004 sum   4.0007
   16    C  MulP   2.0000  2.0000 sum   4.0000
   17    C  MulP   1.9998  1.9998 sum   3.9997
   18    C  MulP   1.9929  1.9929 sum   3.9858
   19    C  MulP   2.0239  2.0239 sum   4.0478
   20    C  MulP   1.9064  1.9064 sum   3.8128
     ..........
     ......

 Sum of MulP: up   =   243.00000 down          =   243.00000
              total=   486.00000 ideal(neutral)=   486.00000
<DFT>  Total Spin Moment (muB) =  0.000000000000
<DFT>  Mixing_weight= 0.030000000000
<DFT>  Uele   = -235.667394973325  dUele     =   0.033688774006
<DFT>  NormRD =    0.002204289780  Criterion =   0.000000010000

******************* MD= 1  SCF=22 *******************
<Poisson>  Poisson's equation using FFT...
<Set_Hamiltonian>  Hamiltonian matrix for VNA+dVH+Vxc...
<Band>  Solving the eigenvalue problem...
 KGrids1:  -0.43750  -0.31250  -0.18750  -0.06250   0.06250   0.18750   0.31250   0.43750 
 KGrids2:  -0.43750  -0.31250  -0.18750  -0.06250   0.06250   0.18750   0.31250   0.43750 
 KGrids3:   0.00000 
<Band_DFT>  Eigen, time=10.618852
<Band_DFT>  DM, time=0.000000
    1    C  MulP   1.9994  1.9994 sum   3.9988
    2    C  MulP   1.9978  1.9978 sum   3.9957
    3    C  MulP   1.9960  1.9960 sum   3.9920
    4    C  MulP   1.9995  1.9995 sum   3.9990
    5    C  MulP   2.0004  2.0004 sum   4.0007
    6    C  MulP   1.9999  1.9999 sum   3.9999
    7    C  MulP   2.0000  2.0000 sum   4.0001
    8    C  MulP   2.0000  2.0000 sum   4.0000
    9    C  MulP   1.9998  1.9998 sum   3.9996
   10    C  MulP   1.9949  1.9949 sum   3.9897
   11    C  MulP   1.9841  1.9841 sum   3.9683
   12    C  MulP   1.9999  1.9999 sum   3.9997
   13    C  MulP   2.0001  2.0001 sum   4.0002
   14    C  MulP   1.9999  1.9999 sum   3.9998
   15    C  MulP   2.0004  2.0004 sum   4.0008
   16    C  MulP   2.0000  2.0000 sum   4.0000
   17    C  MulP   1.9998  1.9998 sum   3.9996
   18    C  MulP   1.9929  1.9929 sum   3.9859
   19    C  MulP   2.0241  2.0241 sum   4.0481
   20    C  MulP   1.9062  1.9062 sum   3.8123
     ..........
     ......

 Sum of MulP: up   =   243.00000 down          =   243.00000
              total=   486.00000 ideal(neutral)=   486.00000
<DFT>  Total Spin Moment (muB) =  0.000000000000
<DFT>  Mixing_weight= 0.030000000000
<DFT>  Uele   = -235.676939409536  dUele     =   0.009544436211
<DFT>  NormRD =    0.001364441861  Criterion =   0.000000010000

******************* MD= 1  SCF=23 *******************
<Poisson>  Poisson's equation using FFT...
<Set_Hamiltonian>  Hamiltonian matrix for VNA+dVH+Vxc...
<Band>  Solving the eigenvalue problem...
 KGrids1:  -0.43750  -0.31250  -0.18750  -0.06250   0.06250   0.18750   0.31250   0.43750 
 KGrids2:  -0.43750  -0.31250  -0.18750  -0.06250   0.06250   0.18750   0.31250   0.43750 
 KGrids3:   0.00000 
<Band_DFT>  Eigen, time=10.594315
<Band_DFT>  DM, time=0.000000
    1    C  MulP   1.9994  1.9994 sum   3.9988
    2    C  MulP   1.9978  1.9978 sum   3.9957
    3    C  MulP   1.9960  1.9960 sum   3.9921
    4    C  MulP   1.9995  1.9995 sum   3.9991
    5    C  MulP   2.0004  2.0004 sum   4.0007
    6    C  MulP   1.9999  1.9999 sum   3.9999
    7    C  MulP   2.0000  2.0000 sum   4.0001
    8    C  MulP   2.0000  2.0000 sum   4.0000
    9    C  MulP   1.9998  1.9998 sum   3.9996
   10    C  MulP   1.9949  1.9949 sum   3.9897
   11    C  MulP   1.9841  1.9841 sum   3.9682
   12    C  MulP   1.9999  1.9999 sum   3.9998
   13    C  MulP   2.0001  2.0001 sum   4.0002
   14    C  MulP   1.9999  1.9999 sum   3.9998
   15    C  MulP   2.0004  2.0004 sum   4.0008
   16    C  MulP   2.0000  2.0000 sum   4.0000
   17    C  MulP   1.9998  1.9998 sum   3.9996
   18    C  MulP   1.9929  1.9929 sum   3.9859
   19    C  MulP   2.0240  2.0240 sum   4.0480
   20    C  MulP   1.9062  1.9062 sum   3.8125
     ..........
     ......

 Sum of MulP: up   =   243.00000 down          =   243.00000
              total=   486.00000 ideal(neutral)=   486.00000
<DFT>  Total Spin Moment (muB) =  0.000000000000
<DFT>  Mixing_weight= 0.030000000000
<DFT>  Uele   = -235.685528367873  dUele     =   0.008588958337
<DFT>  NormRD =    0.000629130599  Criterion =   0.000000010000

******************* MD= 1  SCF=24 *******************
<Poisson>  Poisson's equation using FFT...
<Set_Hamiltonian>  Hamiltonian matrix for VNA+dVH+Vxc...
<Band>  Solving the eigenvalue problem...
 KGrids1:  -0.43750  -0.31250  -0.18750  -0.06250   0.06250   0.18750   0.31250   0.43750 
 KGrids2:  -0.43750  -0.31250  -0.18750  -0.06250   0.06250   0.18750   0.31250   0.43750 
 KGrids3:   0.00000 
<Band_DFT>  Eigen, time=10.589210
<Band_DFT>  DM, time=0.000000
    1    C  MulP   1.9994  1.9994 sum   3.9988
    2    C  MulP   1.9979  1.9979 sum   3.9957
    3    C  MulP   1.9960  1.9960 sum   3.9920
    4    C  MulP   1.9995  1.9995 sum   3.9990
    5    C  MulP   2.0003  2.0003 sum   4.0007
    6    C  MulP   1.9999  1.9999 sum   3.9999
    7    C  MulP   2.0000  2.0000 sum   4.0001
    8    C  MulP   2.0000  2.0000 sum   4.0001
    9    C  MulP   1.9998  1.9998 sum   3.9996
   10    C  MulP   1.9949  1.9949 sum   3.9897
   11    C  MulP   1.9841  1.9841 sum   3.9683
   12    C  MulP   1.9999  1.9999 sum   3.9998
   13    C  MulP   2.0001  2.0001 sum   4.0002
   14    C  MulP   1.9999  1.9999 sum   3.9998
   15    C  MulP   2.0004  2.0004 sum   4.0008
   16    C  MulP   2.0000  2.0000 sum   4.0000
   17    C  MulP   1.9998  1.9998 sum   3.9996
   18    C  MulP   1.9929  1.9929 sum   3.9859
   19    C  MulP   2.0240  2.0240 sum   4.0480
   20    C  MulP   1.9063  1.9063 sum   3.8125
     ..........
     ......

 Sum of MulP: up   =   243.00000 down          =   243.00000
              total=   486.00000 ideal(neutral)=   486.00000
<DFT>  Total Spin Moment (muB) =  0.000000000000
<DFT>  Mixing_weight= 0.030000000000
<DFT>  Uele   = -235.689563845561  dUele     =   0.004035477687
<DFT>  NormRD =    0.000269947800  Criterion =   0.000000010000

******************* MD= 1  SCF=25 *******************
<Poisson>  Poisson's equation using FFT...
<Set_Hamiltonian>  Hamiltonian matrix for VNA+dVH+Vxc...
<Band>  Solving the eigenvalue problem...
 KGrids1:  -0.43750  -0.31250  -0.18750  -0.06250   0.06250   0.18750   0.31250   0.43750 
 KGrids2:  -0.43750  -0.31250  -0.18750  -0.06250   0.06250   0.18750   0.31250   0.43750 
 KGrids3:   0.00000 
<Band_DFT>  Eigen, time=10.603689
<Band_DFT>  DM, time=0.000000
    1    C  MulP   1.9994  1.9994 sum   3.9988
    2    C  MulP   1.9978  1.9978 sum   3.9957
    3    C  MulP   1.9960  1.9960 sum   3.9920
    4    C  MulP   1.9995  1.9995 sum   3.9990
    5    C  MulP   2.0004  2.0004 sum   4.0007
    6    C  MulP   1.9999  1.9999 sum   3.9999
    7    C  MulP   2.0000  2.0000 sum   4.0001
    8    C  MulP   2.0000  2.0000 sum   4.0001
    9    C  MulP   1.9998  1.9998 sum   3.9996
   10    C  MulP   1.9949  1.9949 sum   3.9897
   11    C  MulP   1.9841  1.9841 sum   3.9683
   12    C  MulP   1.9999  1.9999 sum   3.9998
   13    C  MulP   2.0001  2.0001 sum   4.0002
   14    C  MulP   1.9999  1.9999 sum   3.9998
   15    C  MulP   2.0004  2.0004 sum   4.0008
   16    C  MulP   2.0000  2.0000 sum   4.0000
   17    C  MulP   1.9998  1.9998 sum   3.9996
   18    C  MulP   1.9929  1.9929 sum   3.9859
   19    C  MulP   2.0240  2.0240 sum   4.0480
   20    C  MulP   1.9062  1.9062 sum   3.8125
     ..........
     ......

 Sum of MulP: up   =   243.00000 down          =   243.00000
              total=   486.00000 ideal(neutral)=   486.00000
<DFT>  Total Spin Moment (muB) =  0.000000000000
<DFT>  Mixing_weight= 0.030000000000
<DFT>  Uele   = -235.690836055741  dUele     =   0.001272210181
<DFT>  NormRD =    0.000165067593  Criterion =   0.000000010000

******************* MD= 1  SCF=26 *******************
<Poisson>  Poisson's equation using FFT...
<Set_Hamiltonian>  Hamiltonian matrix for VNA+dVH+Vxc...
<Band>  Solving the eigenvalue problem...
 KGrids1:  -0.43750  -0.31250  -0.18750  -0.06250   0.06250   0.18750   0.31250   0.43750 
 KGrids2:  -0.43750  -0.31250  -0.18750  -0.06250   0.06250   0.18750   0.31250   0.43750 
 KGrids3:   0.00000 
<Band_DFT>  Eigen, time=10.605570
<Band_DFT>  DM, time=0.000000
    1    C  MulP   1.9994  1.9994 sum   3.9988
    2    C  MulP   1.9978  1.9978 sum   3.9957
    3    C  MulP   1.9960  1.9960 sum   3.9920
    4    C  MulP   1.9995  1.9995 sum   3.9990
    5    C  MulP   2.0004  2.0004 sum   4.0007
    6    C  MulP   1.9999  1.9999 sum   3.9999
    7    C  MulP   2.0000  2.0000 sum   4.0001
    8    C  MulP   2.0000  2.0000 sum   4.0001
    9    C  MulP   1.9998  1.9998 sum   3.9996
   10    C  MulP   1.9949  1.9949 sum   3.9897
   11    C  MulP   1.9841  1.9841 sum   3.9683
   12    C  MulP   1.9999  1.9999 sum   3.9998
   13    C  MulP   2.0001  2.0001 sum   4.0002
   14    C  MulP   1.9999  1.9999 sum   3.9998
   15    C  MulP   2.0004  2.0004 sum   4.0008
   16    C  MulP   2.0000  2.0000 sum   4.0000
   17    C  MulP   1.9998  1.9998 sum   3.9996
   18    C  MulP   1.9929  1.9929 sum   3.9859
   19    C  MulP   2.0240  2.0240 sum   4.0480
   20    C  MulP   1.9062  1.9062 sum   3.8125
     ..........
     ......

 Sum of MulP: up   =   243.00000 down          =   243.00000
              total=   486.00000 ideal(neutral)=   486.00000
<DFT>  Total Spin Moment (muB) =  0.000000000000
<DFT>  Mixing_weight= 0.030000000000
<DFT>  Uele   = -235.692222129629  dUele     =   0.001386073887
<DFT>  NormRD =    0.000085169946  Criterion =   0.000000010000

******************* MD= 1  SCF=27 *******************
<Poisson>  Poisson's equation using FFT...
<Set_Hamiltonian>  Hamiltonian matrix for VNA+dVH+Vxc...
<Band>  Solving the eigenvalue problem...
 KGrids1:  -0.43750  -0.31250  -0.18750  -0.06250   0.06250   0.18750   0.31250   0.43750 
 KGrids2:  -0.43750  -0.31250  -0.18750  -0.06250   0.06250   0.18750   0.31250   0.43750 
 KGrids3:   0.00000 
<Band_DFT>  Eigen, time=10.603272
<Band_DFT>  DM, time=0.000001
    1    C  MulP   1.9994  1.9994 sum   3.9988
    2    C  MulP   1.9979  1.9979 sum   3.9957
    3    C  MulP   1.9960  1.9960 sum   3.9920
    4    C  MulP   1.9995  1.9995 sum   3.9990
    5    C  MulP   2.0004  2.0004 sum   4.0007
    6    C  MulP   1.9999  1.9999 sum   3.9999
    7    C  MulP   2.0000  2.0000 sum   4.0001
    8    C  MulP   2.0000  2.0000 sum   4.0001
    9    C  MulP   1.9998  1.9998 sum   3.9996
   10    C  MulP   1.9949  1.9949 sum   3.9897
   11    C  MulP   1.9841  1.9841 sum   3.9683
   12    C  MulP   1.9999  1.9999 sum   3.9998
   13    C  MulP   2.0001  2.0001 sum   4.0002
   14    C  MulP   1.9999  1.9999 sum   3.9998
   15    C  MulP   2.0004  2.0004 sum   4.0008
   16    C  MulP   2.0000  2.0000 sum   4.0000
   17    C  MulP   1.9998  1.9998 sum   3.9996
   18    C  MulP   1.9929  1.9929 sum   3.9859
   19    C  MulP   2.0240  2.0240 sum   4.0480
   20    C  MulP   1.9062  1.9062 sum   3.8125
     ..........
     ......

 Sum of MulP: up   =   243.00000 down          =   243.00000
              total=   486.00000 ideal(neutral)=   486.00000
<DFT>  Total Spin Moment (muB) =  0.000000000000
<DFT>  Mixing_weight= 0.030000000000
<DFT>  Uele   = -235.692771525667  dUele     =   0.000549396038
<DFT>  NormRD =    0.000052885086  Criterion =   0.000000010000

******************* MD= 1  SCF=28 *******************
<Poisson>  Poisson's equation using FFT...
<Set_Hamiltonian>  Hamiltonian matrix for VNA+dVH+Vxc...
<Band>  Solving the eigenvalue problem...
 KGrids1:  -0.43750  -0.31250  -0.18750  -0.06250   0.06250   0.18750   0.31250   0.43750 
 KGrids2:  -0.43750  -0.31250  -0.18750  -0.06250   0.06250   0.18750   0.31250   0.43750 
 KGrids3:   0.00000 
<Band_DFT>  Eigen, time=10.607238
<Band_DFT>  DM, time=0.000001
    1    C  MulP   1.9994  1.9994 sum   3.9988
    2    C  MulP   1.9979  1.9979 sum   3.9957
    3    C  MulP   1.9960  1.9960 sum   3.9920
    4    C  MulP   1.9995  1.9995 sum   3.9990
    5    C  MulP   2.0004  2.0004 sum   4.0007
    6    C  MulP   1.9999  1.9999 sum   3.9999
    7    C  MulP   2.0000  2.0000 sum   4.0001
    8    C  MulP   2.0000  2.0000 sum   4.0001
    9    C  MulP   1.9998  1.9998 sum   3.9996
   10    C  MulP   1.9949  1.9949 sum   3.9897
   11    C  MulP   1.9841  1.9841 sum   3.9683
   12    C  MulP   1.9999  1.9999 sum   3.9998
   13    C  MulP   2.0001  2.0001 sum   4.0002
   14    C  MulP   1.9999  1.9999 sum   3.9998
   15    C  MulP   2.0004  2.0004 sum   4.0008
   16    C  MulP   2.0000  2.0000 sum   4.0000
   17    C  MulP   1.9998  1.9998 sum   3.9996
   18    C  MulP   1.9929  1.9929 sum   3.9859
   19    C  MulP   2.0240  2.0240 sum   4.0480
   20    C  MulP   1.9062  1.9062 sum   3.8125
     ..........
     ......

 Sum of MulP: up   =   243.00000 down          =   243.00000
              total=   486.00000 ideal(neutral)=   486.00000
<DFT>  Total Spin Moment (muB) =  0.000000000000
<DFT>  Mixing_weight= 0.030000000000
<DFT>  Uele   = -235.692997763545  dUele     =   0.000226237878
<DFT>  NormRD =    0.000026335637  Criterion =   0.000000010000

******************* MD= 1  SCF=29 *******************
<Poisson>  Poisson's equation using FFT...
<Set_Hamiltonian>  Hamiltonian matrix for VNA+dVH+Vxc...
<Band>  Solving the eigenvalue problem...
 KGrids1:  -0.43750  -0.31250  -0.18750  -0.06250   0.06250   0.18750   0.31250   0.43750 
 KGrids2:  -0.43750  -0.31250  -0.18750  -0.06250   0.06250   0.18750   0.31250   0.43750 
 KGrids3:   0.00000 
<Band_DFT>  Eigen, time=10.592812
<Band_DFT>  DM, time=0.000001
    1    C  MulP   1.9994  1.9994 sum   3.9988
    2    C  MulP   1.9979  1.9979 sum   3.9957
    3    C  MulP   1.9960  1.9960 sum   3.9920
    4    C  MulP   1.9995  1.9995 sum   3.9990
    5    C  MulP   2.0004  2.0004 sum   4.0007
    6    C  MulP   1.9999  1.9999 sum   3.9999
    7    C  MulP   2.0000  2.0000 sum   4.0001
    8    C  MulP   2.0000  2.0000 sum   4.0001
    9    C  MulP   1.9998  1.9998 sum   3.9996
   10    C  MulP   1.9949  1.9949 sum   3.9897
   11    C  MulP   1.9841  1.9841 sum   3.9683
   12    C  MulP   1.9999  1.9999 sum   3.9998
   13    C  MulP   2.0001  2.0001 sum   4.0002
   14    C  MulP   1.9999  1.9999 sum   3.9998
   15    C  MulP   2.0004  2.0004 sum   4.0008
   16    C  MulP   2.0000  2.0000 sum   4.0000
   17    C  MulP   1.9998  1.9998 sum   3.9996
   18    C  MulP   1.9929  1.9929 sum   3.9859
   19    C  MulP   2.0240  2.0240 sum   4.0480
   20    C  MulP   1.9062  1.9062 sum   3.8125
     ..........
     ......

 Sum of MulP: up   =   243.00000 down          =   243.00000
              total=   486.00000 ideal(neutral)=   486.00000
<DFT>  Total Spin Moment (muB) =  0.000000000000
<DFT>  Mixing_weight= 0.030000000000
<DFT>  Uele   = -235.693222538178  dUele     =   0.000224774634
<DFT>  NormRD =    0.000017859666  Criterion =   0.000000010000

******************* MD= 1  SCF=30 *******************
<Poisson>  Poisson's equation using FFT...
<Set_Hamiltonian>  Hamiltonian matrix for VNA+dVH+Vxc...
<Band>  Solving the eigenvalue problem...
 KGrids1:  -0.43750  -0.31250  -0.18750  -0.06250   0.06250   0.18750   0.31250   0.43750 
 KGrids2:  -0.43750  -0.31250  -0.18750  -0.06250   0.06250   0.18750   0.31250   0.43750 
 KGrids3:   0.00000 
<Band_DFT>  Eigen, time=10.605495
<Band_DFT>  DM, time=0.000000
    1    C  MulP   1.9994  1.9994 sum   3.9988
    2    C  MulP   1.9979  1.9979 sum   3.9957
    3    C  MulP   1.9960  1.9960 sum   3.9920
    4    C  MulP   1.9995  1.9995 sum   3.9990
    5    C  MulP   2.0004  2.0004 sum   4.0007
    6    C  MulP   1.9999  1.9999 sum   3.9999
    7    C  MulP   2.0000  2.0000 sum   4.0001
    8    C  MulP   2.0000  2.0000 sum   4.0001
    9    C  MulP   1.9998  1.9998 sum   3.9996
   10    C  MulP   1.9949  1.9949 sum   3.9897
   11    C  MulP   1.9841  1.9841 sum   3.9683
   12    C  MulP   1.9999  1.9999 sum   3.9998
   13    C  MulP   2.0001  2.0001 sum   4.0002
   14    C  MulP   1.9999  1.9999 sum   3.9998
   15    C  MulP   2.0004  2.0004 sum   4.0008
   16    C  MulP   2.0000  2.0000 sum   4.0000
   17    C  MulP   1.9998  1.9998 sum   3.9996
   18    C  MulP   1.9929  1.9929 sum   3.9859
   19    C  MulP   2.0240  2.0240 sum   4.0480
   20    C  MulP   1.9062  1.9062 sum   3.8125
     ..........
     ......

 Sum of MulP: up   =   243.00000 down          =   243.00000
              total=   486.00000 ideal(neutral)=   486.00000
<DFT>  Total Spin Moment (muB) =  0.000000000000
<DFT>  Mixing_weight= 0.030000000000
<DFT>  Uele   = -235.693402831157  dUele     =   0.000180292979
<DFT>  NormRD =    0.000010001501  Criterion =   0.000000010000

******************* MD= 1  SCF=31 *******************
<Poisson>  Poisson's equation using FFT...
<Set_Hamiltonian>  Hamiltonian matrix for VNA+dVH+Vxc...
<Band>  Solving the eigenvalue problem...
 KGrids1:  -0.43750  -0.31250  -0.18750  -0.06250   0.06250   0.18750   0.31250   0.43750 
 KGrids2:  -0.43750  -0.31250  -0.18750  -0.06250   0.06250   0.18750   0.31250   0.43750 
 KGrids3:   0.00000 
<Band_DFT>  Eigen, time=10.608681
<Band_DFT>  DM, time=0.000000
    1    C  MulP   1.9994  1.9994 sum   3.9988
    2    C  MulP   1.9979  1.9979 sum   3.9957
    3    C  MulP   1.9960  1.9960 sum   3.9920
    4    C  MulP   1.9995  1.9995 sum   3.9990
    5    C  MulP   2.0004  2.0004 sum   4.0007
    6    C  MulP   1.9999  1.9999 sum   3.9999
    7    C  MulP   2.0000  2.0000 sum   4.0001
    8    C  MulP   2.0000  2.0000 sum   4.0001
    9    C  MulP   1.9998  1.9998 sum   3.9996
   10    C  MulP   1.9949  1.9949 sum   3.9897
   11    C  MulP   1.9841  1.9841 sum   3.9683
   12    C  MulP   1.9999  1.9999 sum   3.9998
   13    C  MulP   2.0001  2.0001 sum   4.0002
   14    C  MulP   1.9999  1.9999 sum   3.9998
   15    C  MulP   2.0004  2.0004 sum   4.0008
   16    C  MulP   2.0000  2.0000 sum   4.0000
   17    C  MulP   1.9998  1.9998 sum   3.9996
   18    C  MulP   1.9929  1.9929 sum   3.9859
   19    C  MulP   2.0240  2.0240 sum   4.0480
   20    C  MulP   1.9062  1.9062 sum   3.8125
     ..........
     ......

 Sum of MulP: up   =   243.00000 down          =   243.00000
              total=   486.00000 ideal(neutral)=   486.00000
<DFT>  Total Spin Moment (muB) =  0.000000000000
<DFT>  Mixing_weight= 0.030000000000
<DFT>  Uele   = -235.693473926229  dUele     =   0.000071095071
<DFT>  NormRD =    0.000004507880  Criterion =   0.000000010000

******************* MD= 1  SCF=32 *******************
<Poisson>  Poisson's equation using FFT...
<Set_Hamiltonian>  Hamiltonian matrix for VNA+dVH+Vxc...
<Band>  Solving the eigenvalue problem...
 KGrids1:  -0.43750  -0.31250  -0.18750  -0.06250   0.06250   0.18750   0.31250   0.43750 
 KGrids2:  -0.43750  -0.31250  -0.18750  -0.06250   0.06250   0.18750   0.31250   0.43750 
 KGrids3:   0.00000 
<Band_DFT>  Eigen, time=10.585426
<Band_DFT>  DM, time=0.000001
    1    C  MulP   1.9994  1.9994 sum   3.9988
    2    C  MulP   1.9979  1.9979 sum   3.9957
    3    C  MulP   1.9960  1.9960 sum   3.9920
    4    C  MulP   1.9995  1.9995 sum   3.9990
    5    C  MulP   2.0004  2.0004 sum   4.0007
    6    C  MulP   1.9999  1.9999 sum   3.9999
    7    C  MulP   2.0000  2.0000 sum   4.0001
    8    C  MulP   2.0000  2.0000 sum   4.0001
    9    C  MulP   1.9998  1.9998 sum   3.9996
   10    C  MulP   1.9949  1.9949 sum   3.9897
   11    C  MulP   1.9841  1.9841 sum   3.9683
   12    C  MulP   1.9999  1.9999 sum   3.9998
   13    C  MulP   2.0001  2.0001 sum   4.0002
   14    C  MulP   1.9999  1.9999 sum   3.9998
   15    C  MulP   2.0004  2.0004 sum   4.0008
   16    C  MulP   2.0000  2.0000 sum   4.0000
   17    C  MulP   1.9998  1.9998 sum   3.9996
   18    C  MulP   1.9929  1.9929 sum   3.9859
   19    C  MulP   2.0240  2.0240 sum   4.0480
   20    C  MulP   1.9062  1.9062 sum   3.8125
     ..........
     ......

 Sum of MulP: up   =   243.00000 down          =   243.00000
              total=   486.00000 ideal(neutral)=   486.00000
<DFT>  Total Spin Moment (muB) =  0.000000000000
<DFT>  Mixing_weight= 0.030000000000
<DFT>  Uele   = -235.693539271171  dUele     =   0.000065344942
<DFT>  NormRD =    0.000002371193  Criterion =   0.000000010000

******************* MD= 1  SCF=33 *******************
<Poisson>  Poisson's equation using FFT...
<Set_Hamiltonian>  Hamiltonian matrix for VNA+dVH+Vxc...
<Band>  Solving the eigenvalue problem...
 KGrids1:  -0.43750  -0.31250  -0.18750  -0.06250   0.06250   0.18750   0.31250   0.43750 
 KGrids2:  -0.43750  -0.31250  -0.18750  -0.06250   0.06250   0.18750   0.31250   0.43750 
 KGrids3:   0.00000 
<Band_DFT>  Eigen, time=10.606995
<Band_DFT>  DM, time=0.000000
    1    C  MulP   1.9994  1.9994 sum   3.9988
    2    C  MulP   1.9979  1.9979 sum   3.9957
    3    C  MulP   1.9960  1.9960 sum   3.9920
    4    C  MulP   1.9995  1.9995 sum   3.9990
    5    C  MulP   2.0004  2.0004 sum   4.0007
    6    C  MulP   1.9999  1.9999 sum   3.9999
    7    C  MulP   2.0000  2.0000 sum   4.0001
    8    C  MulP   2.0000  2.0000 sum   4.0001
    9    C  MulP   1.9998  1.9998 sum   3.9996
   10    C  MulP   1.9949  1.9949 sum   3.9897
   11    C  MulP   1.9841  1.9841 sum   3.9683
   12    C  MulP   1.9999  1.9999 sum   3.9998
   13    C  MulP   2.0001  2.0001 sum   4.0002
   14    C  MulP   1.9999  1.9999 sum   3.9998
   15    C  MulP   2.0004  2.0004 sum   4.0008
   16    C  MulP   2.0000  2.0000 sum   4.0000
   17    C  MulP   1.9998  1.9998 sum   3.9996
   18    C  MulP   1.9929  1.9929 sum   3.9859
   19    C  MulP   2.0240  2.0240 sum   4.0480
   20    C  MulP   1.9062  1.9062 sum   3.8125
     ..........
     ......

 Sum of MulP: up   =   243.00000 down          =   243.00000
              total=   486.00000 ideal(neutral)=   486.00000
<DFT>  Total Spin Moment (muB) =  0.000000000000
<DFT>  Mixing_weight= 0.030000000000
<DFT>  Uele   = -235.693570970813  dUele     =   0.000031699642
<DFT>  NormRD =    0.000000880157  Criterion =   0.000000010000

******************* MD= 1  SCF=34 *******************
<Poisson>  Poisson's equation using FFT...
<Set_Hamiltonian>  Hamiltonian matrix for VNA+dVH+Vxc...
<Band>  Solving the eigenvalue problem...
 KGrids1:  -0.43750  -0.31250  -0.18750  -0.06250   0.06250   0.18750   0.31250   0.43750 
 KGrids2:  -0.43750  -0.31250  -0.18750  -0.06250   0.06250   0.18750   0.31250   0.43750 
 KGrids3:   0.00000 
<Band_DFT>  Eigen, time=10.588752
<Band_DFT>  DM, time=0.000001
    1    C  MulP   1.9994  1.9994 sum   3.9988
    2    C  MulP   1.9979  1.9979 sum   3.9957
    3    C  MulP   1.9960  1.9960 sum   3.9920
    4    C  MulP   1.9995  1.9995 sum   3.9990
    5    C  MulP   2.0004  2.0004 sum   4.0007
    6    C  MulP   1.9999  1.9999 sum   3.9999
    7    C  MulP   2.0000  2.0000 sum   4.0001
    8    C  MulP   2.0000  2.0000 sum   4.0001
    9    C  MulP   1.9998  1.9998 sum   3.9996
   10    C  MulP   1.9949  1.9949 sum   3.9897
   11    C  MulP   1.9841  1.9841 sum   3.9683
   12    C  MulP   1.9999  1.9999 sum   3.9998
   13    C  MulP   2.0001  2.0001 sum   4.0002
   14    C  MulP   1.9999  1.9999 sum   3.9998
   15    C  MulP   2.0004  2.0004 sum   4.0008
   16    C  MulP   2.0000  2.0000 sum   4.0000
   17    C  MulP   1.9998  1.9998 sum   3.9996
   18    C  MulP   1.9929  1.9929 sum   3.9859
   19    C  MulP   2.0240  2.0240 sum   4.0480
   20    C  MulP   1.9062  1.9062 sum   3.8125
     ..........
     ......

 Sum of MulP: up   =   243.00000 down          =   243.00000
              total=   486.00000 ideal(neutral)=   486.00000
<DFT>  Total Spin Moment (muB) =  0.000000000000
<DFT>  Mixing_weight= 0.030000000000
<DFT>  Uele   = -235.693584980756  dUele     =   0.000014009943
<DFT>  NormRD =    0.000000503870  Criterion =   0.000000010000

******************* MD= 1  SCF=35 *******************
<Poisson>  Poisson's equation using FFT...
<Set_Hamiltonian>  Hamiltonian matrix for VNA+dVH+Vxc...
<Band>  Solving the eigenvalue problem...
 KGrids1:  -0.43750  -0.31250  -0.18750  -0.06250   0.06250   0.18750   0.31250   0.43750 
 KGrids2:  -0.43750  -0.31250  -0.18750  -0.06250   0.06250   0.18750   0.31250   0.43750 
 KGrids3:   0.00000 
<Band_DFT>  Eigen, time=10.583924
<Band_DFT>  DM, time=0.000001
    1    C  MulP   1.9994  1.9994 sum   3.9988
    2    C  MulP   1.9979  1.9979 sum   3.9957
    3    C  MulP   1.9960  1.9960 sum   3.9920
    4    C  MulP   1.9995  1.9995 sum   3.9990
    5    C  MulP   2.0004  2.0004 sum   4.0007
    6    C  MulP   1.9999  1.9999 sum   3.9999
    7    C  MulP   2.0000  2.0000 sum   4.0001
    8    C  MulP   2.0000  2.0000 sum   4.0001
    9    C  MulP   1.9998  1.9998 sum   3.9996
   10    C  MulP   1.9949  1.9949 sum   3.9897
   11    C  MulP   1.9841  1.9841 sum   3.9683
   12    C  MulP   1.9999  1.9999 sum   3.9998
   13    C  MulP   2.0001  2.0001 sum   4.0002
   14    C  MulP   1.9999  1.9999 sum   3.9998
   15    C  MulP   2.0004  2.0004 sum   4.0008
   16    C  MulP   2.0000  2.0000 sum   4.0000
   17    C  MulP   1.9998  1.9998 sum   3.9996
   18    C  MulP   1.9929  1.9929 sum   3.9859
   19    C  MulP   2.0240  2.0240 sum   4.0480
   20    C  MulP   1.9062  1.9062 sum   3.8125
     ..........
     ......

 Sum of MulP: up   =   243.00000 down          =   243.00000
              total=   486.00000 ideal(neutral)=   486.00000
<DFT>  Total Spin Moment (muB) =  0.000000000000
<DFT>  Mixing_weight= 0.030000000000
<DFT>  Uele   = -235.693594208691  dUele     =   0.000009227935
<DFT>  NormRD =    0.000000296802  Criterion =   0.000000010000

******************* MD= 1  SCF=36 *******************
<Poisson>  Poisson's equation using FFT...
<Set_Hamiltonian>  Hamiltonian matrix for VNA+dVH+Vxc...
<Band>  Solving the eigenvalue problem...
 KGrids1:  -0.43750  -0.31250  -0.18750  -0.06250   0.06250   0.18750   0.31250   0.43750 
 KGrids2:  -0.43750  -0.31250  -0.18750  -0.06250   0.06250   0.18750   0.31250   0.43750 
 KGrids3:   0.00000 
<Band_DFT>  Eigen, time=10.614531
<Band_DFT>  DM, time=0.000000
    1    C  MulP   1.9994  1.9994 sum   3.9988
    2    C  MulP   1.9979  1.9979 sum   3.9957
    3    C  MulP   1.9960  1.9960 sum   3.9920
    4    C  MulP   1.9995  1.9995 sum   3.9990
    5    C  MulP   2.0004  2.0004 sum   4.0007
    6    C  MulP   1.9999  1.9999 sum   3.9999
    7    C  MulP   2.0000  2.0000 sum   4.0001
    8    C  MulP   2.0000  2.0000 sum   4.0001
    9    C  MulP   1.9998  1.9998 sum   3.9996
   10    C  MulP   1.9949  1.9949 sum   3.9897
   11    C  MulP   1.9841  1.9841 sum   3.9683
   12    C  MulP   1.9999  1.9999 sum   3.9998
   13    C  MulP   2.0001  2.0001 sum   4.0002
   14    C  MulP   1.9999  1.9999 sum   3.9998
   15    C  MulP   2.0004  2.0004 sum   4.0008
   16    C  MulP   2.0000  2.0000 sum   4.0000
   17    C  MulP   1.9998  1.9998 sum   3.9996
   18    C  MulP   1.9929  1.9929 sum   3.9859
   19    C  MulP   2.0240  2.0240 sum   4.0480
   20    C  MulP   1.9062  1.9062 sum   3.8125
     ..........
     ......

 Sum of MulP: up   =   243.00000 down          =   243.00000
              total=   486.00000 ideal(neutral)=   486.00000
<DFT>  Total Spin Moment (muB) =  0.000000000000
<DFT>  Mixing_weight= 0.030000000000
<DFT>  Uele   = -235.693599397572  dUele     =   0.000005188881
<DFT>  NormRD =    0.000000192779  Criterion =   0.000000010000

******************* MD= 1  SCF=37 *******************
<Poisson>  Poisson's equation using FFT...
<Set_Hamiltonian>  Hamiltonian matrix for VNA+dVH+Vxc...
<Band>  Solving the eigenvalue problem...
 KGrids1:  -0.43750  -0.31250  -0.18750  -0.06250   0.06250   0.18750   0.31250   0.43750 
 KGrids2:  -0.43750  -0.31250  -0.18750  -0.06250   0.06250   0.18750   0.31250   0.43750 
 KGrids3:   0.00000 
<Band_DFT>  Eigen, time=10.605922
<Band_DFT>  DM, time=0.000000
    1    C  MulP   1.9994  1.9994 sum   3.9988
    2    C  MulP   1.9979  1.9979 sum   3.9957
    3    C  MulP   1.9960  1.9960 sum   3.9920
    4    C  MulP   1.9995  1.9995 sum   3.9990
    5    C  MulP   2.0004  2.0004 sum   4.0007
    6    C  MulP   1.9999  1.9999 sum   3.9999
    7    C  MulP   2.0000  2.0000 sum   4.0001
    8    C  MulP   2.0000  2.0000 sum   4.0001
    9    C  MulP   1.9998  1.9998 sum   3.9996
   10    C  MulP   1.9949  1.9949 sum   3.9897
   11    C  MulP   1.9841  1.9841 sum   3.9683
   12    C  MulP   1.9999  1.9999 sum   3.9998
   13    C  MulP   2.0001  2.0001 sum   4.0002
   14    C  MulP   1.9999  1.9999 sum   3.9998
   15    C  MulP   2.0004  2.0004 sum   4.0008
   16    C  MulP   2.0000  2.0000 sum   4.0000
   17    C  MulP   1.9998  1.9998 sum   3.9996
   18    C  MulP   1.9929  1.9929 sum   3.9859
   19    C  MulP   2.0240  2.0240 sum   4.0480
   20    C  MulP   1.9062  1.9062 sum   3.8125
     ..........
     ......

 Sum of MulP: up   =   243.00000 down          =   243.00000
              total=   486.00000 ideal(neutral)=   486.00000
<DFT>  Total Spin Moment (muB) =  0.000000000000
<DFT>  Mixing_weight= 0.030000000000
<DFT>  Uele   = -235.693602440290  dUele     =   0.000003042718
<DFT>  NormRD =    0.000000128480  Criterion =   0.000000010000

******************* MD= 1  SCF=38 *******************
<Poisson>  Poisson's equation using FFT...
<Set_Hamiltonian>  Hamiltonian matrix for VNA+dVH+Vxc...
<Band>  Solving the eigenvalue problem...
 KGrids1:  -0.43750  -0.31250  -0.18750  -0.06250   0.06250   0.18750   0.31250   0.43750 
 KGrids2:  -0.43750  -0.31250  -0.18750  -0.06250   0.06250   0.18750   0.31250   0.43750 
 KGrids3:   0.00000 
<Band_DFT>  Eigen, time=10.595439
<Band_DFT>  DM, time=0.000000
    1    C  MulP   1.9994  1.9994 sum   3.9988
    2    C  MulP   1.9979  1.9979 sum   3.9957
    3    C  MulP   1.9960  1.9960 sum   3.9920
    4    C  MulP   1.9995  1.9995 sum   3.9990
    5    C  MulP   2.0004  2.0004 sum   4.0007
    6    C  MulP   1.9999  1.9999 sum   3.9999
    7    C  MulP   2.0000  2.0000 sum   4.0001
    8    C  MulP   2.0000  2.0000 sum   4.0001
    9    C  MulP   1.9998  1.9998 sum   3.9996
   10    C  MulP   1.9949  1.9949 sum   3.9897
   11    C  MulP   1.9841  1.9841 sum   3.9683
   12    C  MulP   1.9999  1.9999 sum   3.9998
   13    C  MulP   2.0001  2.0001 sum   4.0002
   14    C  MulP   1.9999  1.9999 sum   3.9998
   15    C  MulP   2.0004  2.0004 sum   4.0008
   16    C  MulP   2.0000  2.0000 sum   4.0000
   17    C  MulP   1.9998  1.9998 sum   3.9996
   18    C  MulP   1.9929  1.9929 sum   3.9859
   19    C  MulP   2.0240  2.0240 sum   4.0480
   20    C  MulP   1.9062  1.9062 sum   3.8125
     ..........
     ......

[...]
    5    C  MulP   2.0003  2.0003 sum   4.0007
    6    C  MulP   1.9999  1.9999 sum   3.9999
    7    C  MulP   2.0000  2.0000 sum   4.0000
    8    C  MulP   2.0000  2.0000 sum   4.0001
    9    C  MulP   1.9998  1.9998 sum   3.9996
   10    C  MulP   1.9948  1.9948 sum   3.9897
   11    C  MulP   1.9842  1.9842 sum   3.9684
   12    C  MulP   1.9997  1.9997 sum   3.9994
   13    C  MulP   2.0001  2.0001 sum   4.0003
   14    C  MulP   1.9999  1.9999 sum   3.9998
   15    C  MulP   2.0004  2.0004 sum   4.0008
   16    C  MulP   2.0000  2.0000 sum   4.0000
   17    C  MulP   1.9998  1.9998 sum   3.9996
   18    C  MulP   1.9930  1.9930 sum   3.9859
   19    C  MulP   2.0244  2.0244 sum   4.0488
   20    C  MulP   1.9074  1.9074 sum   3.8148
     ..........
     ......

 Sum of MulP: up   =   243.00000 down          =   243.00000
              total=   486.00000 ideal(neutral)=   486.00000
<DFT>  Total Spin Moment (muB) =  0.000000000000
<DFT>  Mixing_weight= 0.030000000000
<DFT>  Uele   = -235.621607649841  dUele     =   0.000001064387
<DFT>  NormRD =    0.000010856150  Criterion =   0.000000010000

******************* MD=29  SCF=13 *******************
<Poisson>  Poisson's equation using FFT...
<Set_Hamiltonian>  Hamiltonian matrix for VNA+dVH+Vxc...
<Band>  Solving the eigenvalue problem...
 KGrids1:  -0.43750  -0.31250  -0.18750  -0.06250   0.06250   0.18750   0.31250   0.43750 
 KGrids2:  -0.43750  -0.31250  -0.18750  -0.06250   0.06250   0.18750   0.31250   0.43750 
 KGrids3:   0.00000 
<Band_DFT>  Eigen, time=10.696767
<Band_DFT>  DM, time=0.000001
    1    C  MulP   1.9994  1.9994 sum   3.9988
    2    C  MulP   1.9979  1.9979 sum   3.9957
    3    C  MulP   1.9960  1.9960 sum   3.9920
    4    C  MulP   1.9995  1.9995 sum   3.9990
    5    C  MulP   2.0003  2.0003 sum   4.0007
    6    C  MulP   1.9999  1.9999 sum   3.9999
    7    C  MulP   2.0000  2.0000 sum   4.0000
    8    C  MulP   2.0000  2.0000 sum   4.0001
    9    C  MulP   1.9998  1.9998 sum   3.9996
   10    C  MulP   1.9948  1.9948 sum   3.9897
   11    C  MulP   1.9842  1.9842 sum   3.9684
   12    C  MulP   1.9997  1.9997 sum   3.9994
   13    C  MulP   2.0001  2.0001 sum   4.0003
   14    C  MulP   1.9999  1.9999 sum   3.9998
   15    C  MulP   2.0004  2.0004 sum   4.0008
   16    C  MulP   2.0000  2.0000 sum   4.0000
   17    C  MulP   1.9998  1.9998 sum   3.9996
   18    C  MulP   1.9930  1.9930 sum   3.9859
   19    C  MulP   2.0244  2.0244 sum   4.0488
   20    C  MulP   1.9074  1.9074 sum   3.8148
     ..........
     ......

 Sum of MulP: up   =   243.00000 down          =   243.00000
              total=   486.00000 ideal(neutral)=   486.00000
<DFT>  Total Spin Moment (muB) =  0.000000000000
<DFT>  Mixing_weight= 0.030000000000
<DFT>  Uele   = -235.621607649118  dUele     =   0.000000000724
<DFT>  NormRD =    0.000004625166  Criterion =   0.000000010000
<MD=29>  Force calculation
  Force calculation #1
  Force calculation #2
  Force calculation #3
  Force calculation #4
  Force calculation #5
<MD=29>  Total Energy
  Force calculation #6
  Force calculation #7

*******************************************************
                  Dipole moment (Debye)                 
*******************************************************

 Absolute D      147.44127407

                      Dx                Dy                Dz
 Total            147.36454145        4.69766660       -0.74374065
 Core           11298.32235822    19955.81573900    24827.00841309
 Electron      -11150.95781677   -19951.11807240   -24827.75215374
 Back ground       -0.00000000       -0.00000000       -0.00000000

*******************************************************
                Total Energy (Hartree) at MD =29        
*******************************************************

  Uele  =    -235.621607649118

  Ukin  =     516.762065328478
  UH0   =   -6544.327624018468
  UH1   =       1.957800748897
  Una   =    -379.577178280987
  Unl   =     -51.483980502775
  Uxc0  =    -118.214454226180
  Uxc1  =    -118.214454226180
  Ucore =    5961.599753786918
  Uhub  =       0.000000000000
  Ucs   =       0.000000000000
  Uzs   =       0.000000000000
  Uzo   =       0.000000000000
  Uef   =       0.000000000000
  UvdW  =       0.000000000000
  Uch   =       0.000000000000
  Utot  =    -731.498071390298

  UpV   =       0.000000000000
  Enpy  =    -731.498071390298
  Note:

  Uele:   band energy
  Ukin:   kinetic energy
  UH0:    electric part of screened Coulomb energy
  UH1:    difference electron-electron Coulomb energy
  Una:    neutral atom potential energy
  Unl:    non-local potential energy
  Uxc0:   exchange-correlation energy for alpha spin
  Uxc1:   exchange-correlation energy for beta spin
  Ucore:  core-core Coulomb energy
  Uhub:   LDA+U energy
  Ucs:    constraint energy for spin orientation
  Uzs:    Zeeman term for spin magnetic moment
  Uzo:    Zeeman term for orbital magnetic moment
  Uef:    electric energy by electric field
  UvdW:   semi-empirical vdW energy 
  Uch:    penalty term to create a core hole
  UpV:    pressure times volume
  Enpy:   Enthalpy = Utot + UpV
  (see also PRB 72, 045121(2005) for the energy contributions)


*******************************************************
           Computational times (s) at MD =29            
*******************************************************

  DFT in total      =  173.17312

  Set_OLP_Kin       =    0.58180
  Set_Nonlocal      =    2.11446
  Set_ProExpn_VNA   =    3.65718
  Set_Hamiltonian   =    9.18251
  Poisson           =    0.15315
  diagonalization   =  147.32967
  Mixing_DM         =    1.30212
  Force             =    3.00821
  Total_Energy      =    0.88199
  Set_Aden_Grid     =    0.27117
  Set_Orbitals_Grid =    0.28252
  Set_Density_Grid  =    3.71977
  RestartFileDFT    =    0.34203
  Mulliken_Charge   =    0.01010
  FFT(2D)_Density   =    0.17059

The SCF was achieved at MD=  29

*******************************************************
             MD or geometry opt. at MD =29              
*******************************************************


The geometry optimization was achieved.
<RF>  |Maximum force| (Hartree/Bohr) = 0.000060076224
<RF>  Criterion       (Hartree/Bohr) = 0.000100000000

     atom=   1, XYZ(ang) Fxyz(a.u.)=   0.0286    1.4385   10.4580    -0.0000   -0.0000    0.0000
     atom=   2, XYZ(ang) Fxyz(a.u.)=  -1.1976    3.5679   10.4638    -0.0000    0.0000    0.0000
     atom=   3, XYZ(ang) Fxyz(a.u.)=  -2.4187    5.7082   10.5085    -0.0000   -0.0000    0.0000
     atom=   4, XYZ(ang) Fxyz(a.u.)=  -3.6435    7.8385   10.5340    -0.0000   -0.0000    0.0000
     atom=   5, XYZ(ang) Fxyz(a.u.)=  -4.8937    9.9707   10.5172    -0.0000   -0.0000   -0.0000
     atom=   6, XYZ(ang) Fxyz(a.u.)=  -6.1452   12.1079   10.4955    -0.0000   -0.0000   -0.0000
     atom=   7, XYZ(ang) Fxyz(a.u.)=  -7.3846   14.2479   10.4794    -0.0000   -0.0000    0.0000
     atom=   8, XYZ(ang) Fxyz(a.u.)=  -8.6145   16.3895   10.4668    -0.0000   -0.0000    0.0000
     atom=   9, XYZ(ang) Fxyz(a.u.)=   2.4990    1.4598   10.4601    -0.0000   -0.0000    0.0000
     atom=  10, XYZ(ang) Fxyz(a.u.)=   1.2807    3.6050   10.4508     0.0000   -0.0000    0.0000
     atom=  11, XYZ(ang) Fxyz(a.u.)=   0.0499    5.7151   10.4911     0.0000    0.0000    0.0000
     atom=  12, XYZ(ang) Fxyz(a.u.)=  -1.1277    7.8349   10.5632    -0.0000   -0.0000    0.0000
     atom=  13, XYZ(ang) Fxyz(a.u.)=  -2.3951    9.9714   10.5342    -0.0000   -0.0000   -0.0000
     atom=  14, XYZ(ang) Fxyz(a.u.)=  -3.6669   12.1104   10.4948    -0.0000    0.0000    0.0000
     atom=  15, XYZ(ang) Fxyz(a.u.)=  -4.9104   14.2548   10.4785    -0.0000    0.0000    0.0000
     atom=  16, XYZ(ang) Fxyz(a.u.)=  -6.1457   16.4033   10.4705     0.0000    0.0000    0.0000
     atom=  17, XYZ(ang) Fxyz(a.u.)=   4.9541    1.4784   10.4689     0.0000   -0.0000    0.0000
     atom=  18, XYZ(ang) Fxyz(a.u.)=   3.7291    3.6625   10.4755    -0.0000   -0.0000    0.0000
     atom=  19, XYZ(ang) Fxyz(a.u.)=   2.5182    5.8040   10.4785     0.0000   -0.0000    0.0000
     atom=  20, XYZ(ang) Fxyz(a.u.)=   1.4610    7.7541   10.6347    -0.0000   -0.0000   -0.0001
     atom=  21, XYZ(ang) Fxyz(a.u.)=   0.0986    9.9919   10.5529    -0.0000    0.0000   -0.0000
     atom=  22, XYZ(ang) Fxyz(a.u.)=  -1.1925   12.1088   10.4713    -0.0000    0.0000   -0.0000
     atom=  23, XYZ(ang) Fxyz(a.u.)=  -2.4381   14.2544   10.4642    -0.0000    0.0000    0.0000
     atom=  24, XYZ(ang) Fxyz(a.u.)=  -3.6792   16.4068   10.4666    -0.0000   -0.0000    0.0000
     atom=  25, XYZ(ang) Fxyz(a.u.)=   7.4162    1.4600   10.4672    -0.0000   -0.0000   -0.0000
     atom=  26, XYZ(ang) Fxyz(a.u.)=   6.1749    3.6430   10.4730     0.0000    0.0000   -0.0000
     atom=  27, XYZ(ang) Fxyz(a.u.)=   1.3002   12.0697   10.4582     0.0000   -0.0000   -0.0000
     atom=  28, XYZ(ang) Fxyz(a.u.)=   0.0366   14.2331   10.4453     0.0000   -0.0000   -0.0000
     atom=  29, XYZ(ang) Fxyz(a.u.)=  -1.2084   16.3925   10.4567    -0.0000   -0.0000    0.0000
     atom=  30, XYZ(ang) Fxyz(a.u.)=   9.8885    1.4397   10.4646    -0.0000    0.0000   -0.0000
     atom=  31, XYZ(ang) Fxyz(a.u.)=   8.6380    3.6043   10.4749     0.0000   -0.0000   -0.0000
     atom=  32, XYZ(ang) Fxyz(a.u.)=   7.3724    5.7471   10.4854    -0.0000   -0.0000   -0.0000
     atom=  33, XYZ(ang) Fxyz(a.u.)=   3.7029   11.9918   10.4771    -0.0000    0.0000   -0.0000
     atom=  34, XYZ(ang) Fxyz(a.u.)=   2.5083   14.1964   10.4526     0.0000   -0.0000   -0.0000
     atom=  35, XYZ(ang) Fxyz(a.u.)=   1.2651   16.3702   10.4544    -0.0000   -0.0000   -0.0000
     atom=  36, XYZ(ang) Fxyz(a.u.)=  12.3601    1.4208   10.4697    -0.0000   -0.0000    0.0000
     atom=  37, XYZ(ang) Fxyz(a.u.)=  11.1172    3.5725   10.4799     0.0000   -0.0000    0.0000
     atom=  38, XYZ(ang) Fxyz(a.u.)=   9.8726    5.7188   10.4848     0.0000   -0.0000   -0.0000
     atom=  39, XYZ(ang) Fxyz(a.u.)=   8.6122    7.8736   10.4879     0.0000   -0.0000    0.0000
     atom=  40, XYZ(ang) Fxyz(a.u.)=   6.1966   12.0224   10.4739    -0.0000    0.0000    0.0000
     atom=  41, XYZ(ang) Fxyz(a.u.)=   4.9486   14.1853   10.4726     0.0000    0.0000    0.0000
     atom=  42, XYZ(ang) Fxyz(a.u.)=   3.7253   16.3551   10.4644     0.0000   -0.0000   -0.0000
     atom=  43, XYZ(ang) Fxyz(a.u.)=  14.8281    1.4138   10.4730    -0.0000   -0.0000    0.0000
     atom=  44, XYZ(ang) Fxyz(a.u.)=  13.5946    3.5634   10.4863     0.0000    0.0000    0.0000
     atom=  45, XYZ(ang) Fxyz(a.u.)=  12.3546    5.7080   10.4972     0.0000    0.0000   -0.0000
     atom=  46, XYZ(ang) Fxyz(a.u.)=  11.0989    7.8401   10.4994     0.0000    0.0000   -0.0000
     atom=  47, XYZ(ang) Fxyz(a.u.)=   9.8439    9.9552   10.4889     0.0000   -0.0000    0.0000
     atom=  48, XYZ(ang) Fxyz(a.u.)=   8.6174   12.0604   10.4820    -0.0000    0.0000    0.0000
     atom=  49, XYZ(ang) Fxyz(a.u.)=   7.4044   14.1985   10.4744     0.0000   -0.0000    0.0000
     atom=  50, XYZ(ang) Fxyz(a.u.)=   6.1864   16.3516   10.4693     0.0000   -0.0000    0.0000
     atom=  51, XYZ(ang) Fxyz(a.u.)=  17.2952    1.4168   10.4665    -0.0000   -0.0000    0.0000
     atom=  52, XYZ(ang) Fxyz(a.u.)=  16.0685    3.5632   10.4828    -0.0000   -0.0000   -0.0000
     atom=  53, XYZ(ang) Fxyz(a.u.)=  14.8373    5.7025   10.5077    -0.0000   -0.0000   -0.0000
     atom=  54, XYZ(ang) Fxyz(a.u.)=  13.5982    7.8375   10.5135    -0.0000   -0.0000    0.0000
     atom=  55, XYZ(ang) Fxyz(a.u.)=  12.3505    9.9703   10.5030    -0.0000   -0.0000   -0.0000
     atom=  56, XYZ(ang) Fxyz(a.u.)=  11.1071   12.0957   10.4874    -0.0000   -0.0000   -0.0000
     atom=  57, XYZ(ang) Fxyz(a.u.)=   9.8786   14.2277   10.4753    -0.0000   -0.0000    0.0000
     atom=  58, XYZ(ang) Fxyz(a.u.)=   8.6512   16.3683   10.4670    -0.0000   -0.0000    0.0000
     atom=  59, XYZ(ang) Fxyz(a.u.)=   1.2649    0.7298   10.4600    -0.0000   -0.0000   -0.0000
     atom=  60, XYZ(ang) Fxyz(a.u.)=   0.0390    2.8690   10.4538    -0.0000   -0.0000   -0.0000
     atom=  61, XYZ(ang) Fxyz(a.u.)=  -1.1864    4.9967   10.4805    -0.0000   -0.0000   -0.0000
     atom=  62, XYZ(ang) Fxyz(a.u.)=  -2.3934    7.1320   10.5377    -0.0000    0.0000   -0.0000
     atom=  63, XYZ(ang) Fxyz(a.u.)=  -3.6440    9.2633   10.5328    -0.0000   -0.0000    0.0000
     atom=  64, XYZ(ang) Fxyz(a.u.)=  -4.9031   11.3982   10.5048    -0.0000   -0.0000   -0.0000
     atom=  65, XYZ(ang) Fxyz(a.u.)=  -6.1457   13.5368   10.4852    -0.0000   -0.0000    0.0000
     atom=  66, XYZ(ang) Fxyz(a.u.)=  -7.3794   15.6789   10.4720    -0.0000    0.0000    0.0000
     atom=  67, XYZ(ang) Fxyz(a.u.)=   3.7251    0.7436   10.4667    -0.0000   -0.0000   -0.0000
     atom=  68, XYZ(ang) Fxyz(a.u.)=   2.5098    2.9025   10.4585     0.0000   -0.0000   -0.0000
     atom=  69, XYZ(ang) Fxyz(a.u.)=   1.3068    5.0337   10.4677     0.0000    0.0000    0.0000
     atom=  70, XYZ(ang) Fxyz(a.u.)=   0.1027    7.1190   10.5583     0.0000   -0.0000   -0.0000
     atom=  71, XYZ(ang) Fxyz(a.u.)=  -1.1285    9.2707   10.5611    -0.0000   -0.0000   -0.0000
     atom=  72, XYZ(ang) Fxyz(a.u.)=  -2.4225   11.3949   10.5022    -0.0000    0.0000   -0.0000
     atom=  73, XYZ(ang) Fxyz(a.u.)=  -3.6722   13.5383   10.4783    -0.0000   -0.0000    0.0000
     atom=  74, XYZ(ang) Fxyz(a.u.)=  -4.9113   15.6863   10.4720    -0.0000   -0.0000    0.0000
     atom=  75, XYZ(ang) Fxyz(a.u.)=   6.1871    0.7470   10.4669    -0.0000    0.0000   -0.0000
     atom=  76, XYZ(ang) Fxyz(a.u.)=   4.9513    2.9099   10.4735     0.0000   -0.0000   -0.0000
     atom=  77, XYZ(ang) Fxyz(a.u.)=   3.7120    5.1003   10.4828    -0.0000    0.0000    0.0000
     atom=  78, XYZ(ang) Fxyz(a.u.)=   1.4648    9.3776   10.6293    -0.0000   -0.0000   -0.0000
     atom=  79, XYZ(ang) Fxyz(a.u.)=   0.0422   11.3932   10.4807    -0.0000   -0.0000   -0.0000
     atom=  80, XYZ(ang) Fxyz(a.u.)=  -1.2010   13.5361   10.4551    -0.0000   -0.0000    0.0000
     atom=  81, XYZ(ang) Fxyz(a.u.)=  -2.4441   15.6843   10.4613    -0.0000   -0.0000   -0.0000
     atom=  82, XYZ(ang) Fxyz(a.u.)=   8.6519    0.7317   10.4620    -0.0000    0.0000    0.0000
     atom=  83, XYZ(ang) Fxyz(a.u.)=   7.4060    2.8999   10.4717    -0.0000    0.0000    0.0000
     atom=  84, XYZ(ang) Fxyz(a.u.)=   6.1951    5.0745   10.4733    -0.0000    0.0000    0.0000
     atom=  85, XYZ(ang) Fxyz(a.u.)=   2.5041   11.2867   10.4726    -0.0000    0.0000   -0.0000
     atom=  86, XYZ(ang) Fxyz(a.u.)=   1.2780   13.4970   10.4424     0.0000   -0.0000    0.0000
     atom=  87, XYZ(ang) Fxyz(a.u.)=   0.0281   15.6628   10.4510     0.0000   -0.0000    0.0000
     atom=  88, XYZ(ang) Fxyz(a.u.)=  11.1248    0.7103   10.4622    -0.0000   -0.0000    0.0000
     atom=  89, XYZ(ang) Fxyz(a.u.)=   9.8800    2.8718   10.4725    -0.0000   -0.0000    0.0001
     atom=  90, XYZ(ang) Fxyz(a.u.)=   8.6178    5.0385   10.4813    -0.0000   -0.0000    0.0001
     atom=  91, XYZ(ang) Fxyz(a.u.)=   3.7251   13.4312   10.4708    -0.0000   -0.0000    0.0000
     atom=  92, XYZ(ang) Fxyz(a.u.)=   2.4990   15.6394   10.4555    -0.0000   -0.0000    0.0000
     atom=  93, XYZ(ang) Fxyz(a.u.)=  13.5940    0.6961   10.4692     0.0000   -0.0000    0.0000
     atom=  94, XYZ(ang) Fxyz(a.u.)=  12.3555    2.8521   10.4786    -0.0000    0.0000    0.0000
     atom=  95, XYZ(ang) Fxyz(a.u.)=  11.1082    5.0040   10.4874    -0.0000    0.0000    0.0000
     atom=  96, XYZ(ang) Fxyz(a.u.)=   9.8440    7.1440   10.4899     0.0000    0.0000    0.0000
     atom=  97, XYZ(ang) Fxyz(a.u.)=   8.6124    9.2256   10.4867     0.0000    0.0000    0.0000
     atom=  98, XYZ(ang) Fxyz(a.u.)=   7.3734   11.3495   10.4852    -0.0000    0.0000   -0.0000
     atom=  99, XYZ(ang) Fxyz(a.u.)=   6.1735   13.4537   10.4746    -0.0000   -0.0000    0.0000
     atom= 100, XYZ(ang) Fxyz(a.u.)=   4.9534   15.6184   10.4683     0.0000   -0.0000   -0.0000
     atom= 101, XYZ(ang) Fxyz(a.u.)=  16.0600    0.6928   10.4694    -0.0000   -0.0000    0.0000
     atom= 102, XYZ(ang) Fxyz(a.u.)=  14.8301    2.8457   10.4806     0.0000    0.0000    0.0000
     atom= 103, XYZ(ang) Fxyz(a.u.)=  13.5950    4.9924   10.4974    -0.0000    0.0000    0.0000
     atom= 104, XYZ(ang) Fxyz(a.u.)=  12.3511    7.1293   10.5040     0.0000    0.0000    0.0000
     atom= 105, XYZ(ang) Fxyz(a.u.)=  11.0988    9.2591   10.4987     0.0000   -0.0000   -0.0000
     atom= 106, XYZ(ang) Fxyz(a.u.)=   9.8724   11.3803   10.4851     0.0000   -0.0000   -0.0000
     atom= 107, XYZ(ang) Fxyz(a.u.)=   8.6368   13.4947   10.4770    -0.0000   -0.0000   -0.0000
     atom= 108, XYZ(ang) Fxyz(a.u.)=   7.4156   15.6389   10.4707     0.0000   -0.0000   -0.0000
     atom= 109, XYZ(ang) Fxyz(a.u.)=  18.5306    0.7081   10.4627    -0.0000   -0.0000   -0.0000
     atom= 110, XYZ(ang) Fxyz(a.u.)=  17.3031    2.8479   10.4703    -0.0000   -0.0000    0.0000
     atom= 111, XYZ(ang) Fxyz(a.u.)=  16.0747    4.9914   10.4994    -0.0000    0.0000   -0.0000
     atom= 112, XYZ(ang) Fxyz(a.u.)=  14.8455    7.1302   10.5191    -0.0000    0.0000    0.0000
     atom= 113, XYZ(ang) Fxyz(a.u.)=  13.5980    9.2626   10.5130     0.0000    0.0000    0.0000
     atom= 114, XYZ(ang) Fxyz(a.u.)=  12.3534   11.3918   10.4960    -0.0000   -0.0000   -0.0000
     atom= 115, XYZ(ang) Fxyz(a.u.)=  11.1159   13.5272   10.4810    -0.0000    0.0000    0.0000
     atom= 116, XYZ(ang) Fxyz(a.u.)=   9.8876   15.6600   10.4693    -0.0000   -0.0000    0.0000
     atom= 117, XYZ(ang) Fxyz(a.u.)=   1.7083    8.5656   11.7865    -0.0000   -0.0000    0.0000
     atom= 118, XYZ(ang) Fxyz(a.u.)=   2.4298    8.4966   14.5765     0.0000   -0.0001   -0.0001
     atom= 119, XYZ(ang) Fxyz(a.u.)=   1.8431    7.4709   14.7221    -0.0000   -0.0000   -0.0001
     atom= 120, XYZ(ang) Fxyz(a.u.)=   3.0195    9.5232   14.4569    -0.0000   -0.0000    0.0000

outputting data on grids to files...


***********************************************************
***********************************************************
               Computational Time (second)                 
***********************************************************
***********************************************************

                               Min_ID   Min_Time       Max_ID   Max_Time
   Total Computational Time =    16     7395.531          0     7395.748
   readfile                 =    11        2.292          2        2.304
   truncation               =    22       19.983         55       22.848
   MD_pac                   =     0        1.128         31        1.223
   OutData                  =    14        0.524          0        0.734
   DFT                      =    55     7368.584         22     7371.449

*** In DFT ***

   Set_OLP_Kin              =    40       15.057         63       32.543
   Set_Nonlocal             =    63       45.842         40       63.273
   Set_ProExpn_VNA          =    24      104.566         33      112.622
   Set_Hamiltonian          =    55      406.005         61      406.006
   Poisson                  =     0        6.613          8        6.615
   Diagonalization          =     0     6397.412          6     6397.420
   Mixing_DM                =    36       60.115         44       60.117
   Force                    =     6       86.884         40       86.884
   Total_Energy             =    32       25.657          0       25.665
   Set_Aden_Grid            =    33        1.579         24        9.640
   Set_Orbitals_Grid        =    22        4.905          4       16.353
   Set_Density_Grid         =    35      157.338         54      163.536
   RestartFileDFT           =    33        2.132         40       10.697
   Mulliken_Charge          =    10        0.368          0        0.368
   FFT(2D)_Density          =    34        7.041         31        7.047
   Others                   =    59        4.653         23       16.219

The calculation was normally finished.
