
The number of threads in each node for OpenMP parallelization is 1.


*******************************************************
*******************************************************
 Welcome to OpenMX   Ver. 3.9.9                           
 Copyright (C), 2002-2019, T. Ozaki                    
 OpenMX comes with ABSOLUTELY NO WARRANTY.             
 This is free software, and you are welcome to         
 redistribute it under the constitution of the GNU-GPL.
*******************************************************
*******************************************************

Automatic determination of Kerker_factor:   3.992945286074


<Input_std>  Your input file was normally read.
<Input_std>  The system includes 3 species and 121 atoms.

*******************************************************
                     PAO and VPS                       
*******************************************************

<SetPara_DFT>  PAOs of species H were normally found.
<SetPara_DFT>  PAOs of species C were normally found.
<SetPara_DFT>  PAOs of species O were normally found.
<SetPara_DFT>  VPSs of species H were normally found.
               H_PBE19.vps is j-dependent.
               In case of scf.SpinOrbit.Coupling=off,
               j-dependent pseudo potentials are averaged by j-degeneracy,
               which corresponds to a scalar relativistic treatment.
<SetPara_DFT>  VPSs of species C were normally found.
               C_PBE19.vps is j-dependent.
               In case of scf.SpinOrbit.Coupling=off,
               j-dependent pseudo potentials are averaged by j-degeneracy,
               which corresponds to a scalar relativistic treatment.
<SetPara_DFT>  VPSs of species O were normally found.
               O_PBE19.vps is j-dependent.
               In case of scf.SpinOrbit.Coupling=off,
               j-dependent pseudo potentials are averaged by j-degeneracy,
               which corresponds to a scalar relativistic treatment.

*******************************************************
     Fourier transform of PAO and projectors of VNL    
*******************************************************

<FT_PAO>          Fourier transform of pseudo atomic orbitals
<FT_NLP>          Fourier transform of non-local projectors
<FT_ProExpn_VNA>  Fourier transform of VNA separable projectors
<FT_VNA>          Fourier transform of VNA potentials
<FT_ProductPAO>   Fourier transform of product of PAOs

*******************************************************
  Allocation of atoms to processors at MD_iter=    1     
*******************************************************

 proc =   0  # of atoms=   1  estimated weight=         1.00000
 proc =   1  # of atoms=   2  estimated weight=         2.00000
 proc =   2  # of atoms=   2  estimated weight=         2.00000
 proc =   3  # of atoms=   2  estimated weight=         2.00000
 proc =   4  # of atoms=   2  estimated weight=         2.00000
 proc =   5  # of atoms=   2  estimated weight=         2.00000
 proc =   6  # of atoms=   2  estimated weight=         2.00000
 proc =   7  # of atoms=   2  estimated weight=         2.00000
 proc =   8  # of atoms=   1  estimated weight=         1.00000
 proc =   9  # of atoms=   2  estimated weight=         2.00000
 proc =  10  # of atoms=   2  estimated weight=         2.00000
 proc =  11  # of atoms=   2  estimated weight=         2.00000
 proc =  12  # of atoms=   2  estimated weight=         2.00000
 proc =  13  # of atoms=   2  estimated weight=         2.00000
 proc =  14  # of atoms=   2  estimated weight=         2.00000
 proc =  15  # of atoms=   2  estimated weight=         2.00000
 proc =  16  # of atoms=   1  estimated weight=         1.00000
 proc =  17  # of atoms=   2  estimated weight=         2.00000
 proc =  18  # of atoms=   2  estimated weight=         2.00000
 proc =  19  # of atoms=   2  estimated weight=         2.00000
 proc =  20  # of atoms=   2  estimated weight=         2.00000
 proc =  21  # of atoms=   2  estimated weight=         2.00000
 proc =  22  # of atoms=   2  estimated weight=         2.00000
 proc =  23  # of atoms=   2  estimated weight=         2.00000
 proc =  24  # of atoms=   1  estimated weight=         1.00000
 proc =  25  # of atoms=   2  estimated weight=         2.00000
 proc =  26  # of atoms=   2  estimated weight=         2.00000
 proc =  27  # of atoms=   2  estimated weight=         2.00000
 proc =  28  # of atoms=   2  estimated weight=         2.00000
 proc =  29  # of atoms=   2  estimated weight=         2.00000
 proc =  30  # of atoms=   2  estimated weight=         2.00000
 proc =  31  # of atoms=   2  estimated weight=         2.00000
 proc =  32  # of atoms=   1  estimated weight=         1.00000
 proc =  33  # of atoms=   2  estimated weight=         2.00000
 proc =  34  # of atoms=   2  estimated weight=         2.00000
 proc =  35  # of atoms=   2  estimated weight=         2.00000
 proc =  36  # of atoms=   2  estimated weight=         2.00000
 proc =  37  # of atoms=   2  estimated weight=         2.00000
 proc =  38  # of atoms=   2  estimated weight=         2.00000
 proc =  39  # of atoms=   2  estimated weight=         2.00000
 proc =  40  # of atoms=   1  estimated weight=         1.00000
 proc =  41  # of atoms=   2  estimated weight=         2.00000
 proc =  42  # of atoms=   2  estimated weight=         2.00000
 proc =  43  # of atoms=   2  estimated weight=         2.00000
 proc =  44  # of atoms=   2  estimated weight=         2.00000
 proc =  45  # of atoms=   2  estimated weight=         2.00000
 proc =  46  # of atoms=   2  estimated weight=         2.00000
 proc =  47  # of atoms=   2  estimated weight=         2.00000
 proc =  48  # of atoms=   1  estimated weight=         1.00000
 proc =  49  # of atoms=   2  estimated weight=         2.00000
 proc =  50  # of atoms=   2  estimated weight=         2.00000
 proc =  51  # of atoms=   2  estimated weight=         2.00000
 proc =  52  # of atoms=   2  estimated weight=         2.00000
 proc =  53  # of atoms=   2  estimated weight=         2.00000
 proc =  54  # of atoms=   2  estimated weight=         2.00000
 proc =  55  # of atoms=   2  estimated weight=         2.00000
 proc =  56  # of atoms=   2  estimated weight=         2.00000
 proc =  57  # of atoms=   2  estimated weight=         2.00000
 proc =  58  # of atoms=   2  estimated weight=         2.00000
 proc =  59  # of atoms=   2  estimated weight=         2.00000
 proc =  60  # of atoms=   2  estimated weight=         2.00000
 proc =  61  # of atoms=   2  estimated weight=         2.00000
 proc =  62  # of atoms=   2  estimated weight=         2.00000
 proc =  63  # of atoms=   2  estimated weight=         2.00000




*******************************************************
        Analysis of neighbors and setting of grids        
*******************************************************

TFNAN=    5052   Average FNAN=  41.75207
TSNAN=       0   Average SNAN=   0.00000
<truncation> CpyCell= 1 ct_AN=   1 FNAN SNAN  44   0
<truncation> CpyCell= 1 ct_AN=   2 FNAN SNAN  44   0
<truncation> CpyCell= 1 ct_AN=   3 FNAN SNAN  45   0
<truncation> CpyCell= 1 ct_AN=   4 FNAN SNAN  46   0
<truncation> CpyCell= 1 ct_AN=   5 FNAN SNAN  47   0
<truncation> CpyCell= 1 ct_AN=   6 FNAN SNAN  45   0
<truncation> CpyCell= 1 ct_AN=   7 FNAN SNAN  45   0
<truncation> CpyCell= 1 ct_AN=   8 FNAN SNAN  45   0
<truncation> CpyCell= 1 ct_AN=   9 FNAN SNAN  42   0
<truncation> CpyCell= 1 ct_AN=  10 FNAN SNAN  40   0
<truncation> CpyCell= 1 ct_AN=  11 FNAN SNAN  41   0
<truncation> CpyCell= 1 ct_AN=  12 FNAN SNAN  43   0
<truncation> CpyCell= 1 ct_AN=  13 FNAN SNAN  46   0
<truncation> CpyCell= 1 ct_AN=  14 FNAN SNAN  47   0
<truncation> CpyCell= 1 ct_AN=  15 FNAN SNAN  46   0
<truncation> CpyCell= 1 ct_AN=  16 FNAN SNAN  45   0
<truncation> CpyCell= 1 ct_AN=  17 FNAN SNAN  41   0
<truncation> CpyCell= 1 ct_AN=  18 FNAN SNAN  37   0
<truncation> CpyCell= 1 ct_AN=  19 FNAN SNAN  35   0
<truncation> CpyCell= 1 ct_AN=  20 FNAN SNAN  38   0
     ..........
     ......

TFNAN=    5052   Average FNAN=  41.75207
TSNAN=       0   Average SNAN=   0.00000
<truncation> CpyCell= 2 ct_AN=   1 FNAN SNAN  44   0
<truncation> CpyCell= 2 ct_AN=   2 FNAN SNAN  44   0
<truncation> CpyCell= 2 ct_AN=   3 FNAN SNAN  45   0
<truncation> CpyCell= 2 ct_AN=   4 FNAN SNAN  46   0
<truncation> CpyCell= 2 ct_AN=   5 FNAN SNAN  47   0
<truncation> CpyCell= 2 ct_AN=   6 FNAN SNAN  45   0
<truncation> CpyCell= 2 ct_AN=   7 FNAN SNAN  45   0
<truncation> CpyCell= 2 ct_AN=   8 FNAN SNAN  45   0
<truncation> CpyCell= 2 ct_AN=   9 FNAN SNAN  42   0
<truncation> CpyCell= 2 ct_AN=  10 FNAN SNAN  40   0
<truncation> CpyCell= 2 ct_AN=  11 FNAN SNAN  41   0
<truncation> CpyCell= 2 ct_AN=  12 FNAN SNAN  43   0
<truncation> CpyCell= 2 ct_AN=  13 FNAN SNAN  46   0
<truncation> CpyCell= 2 ct_AN=  14 FNAN SNAN  47   0
<truncation> CpyCell= 2 ct_AN=  15 FNAN SNAN  46   0
<truncation> CpyCell= 2 ct_AN=  16 FNAN SNAN  45   0
<truncation> CpyCell= 2 ct_AN=  17 FNAN SNAN  41   0
<truncation> CpyCell= 2 ct_AN=  18 FNAN SNAN  37   0
<truncation> CpyCell= 2 ct_AN=  19 FNAN SNAN  35   0
<truncation> CpyCell= 2 ct_AN=  20 FNAN SNAN  38   0
     ..........
     ......

TFNAN=    5052   Average FNAN=  41.75207
TSNAN=       0   Average SNAN=   0.00000
<truncation> CpyCell= 2 ct_AN=   1 FNAN SNAN  44   0
<truncation> CpyCell= 2 ct_AN=   2 FNAN SNAN  44   0
<truncation> CpyCell= 2 ct_AN=   3 FNAN SNAN  45   0
<truncation> CpyCell= 2 ct_AN=   4 FNAN SNAN  46   0
<truncation> CpyCell= 2 ct_AN=   5 FNAN SNAN  47   0
<truncation> CpyCell= 2 ct_AN=   6 FNAN SNAN  45   0
<truncation> CpyCell= 2 ct_AN=   7 FNAN SNAN  45   0
<truncation> CpyCell= 2 ct_AN=   8 FNAN SNAN  45   0
<truncation> CpyCell= 2 ct_AN=   9 FNAN SNAN  42   0
<truncation> CpyCell= 2 ct_AN=  10 FNAN SNAN  40   0
<truncation> CpyCell= 2 ct_AN=  11 FNAN SNAN  41   0
<truncation> CpyCell= 2 ct_AN=  12 FNAN SNAN  43   0
<truncation> CpyCell= 2 ct_AN=  13 FNAN SNAN  46   0
<truncation> CpyCell= 2 ct_AN=  14 FNAN SNAN  47   0
<truncation> CpyCell= 2 ct_AN=  15 FNAN SNAN  46   0
<truncation> CpyCell= 2 ct_AN=  16 FNAN SNAN  45   0
<truncation> CpyCell= 2 ct_AN=  17 FNAN SNAN  41   0
<truncation> CpyCell= 2 ct_AN=  18 FNAN SNAN  37   0
<truncation> CpyCell= 2 ct_AN=  19 FNAN SNAN  35   0
<truncation> CpyCell= 2 ct_AN=  20 FNAN SNAN  38   0
     ..........
     ......

<Check_System> The system is slab.
lattice vectors (bohr)
A  = 37.299978480367,  0.000000000000,  0.000000000000
B  = -18.649989240184, 32.302728872609,  0.000000000000
C  =  0.000000000000,  0.000000000000, 39.684245760157
reciprocal lattice vectors (bohr^-1)
RA =  0.168450105420,  0.097254713866, -0.000000000000
RB =  0.000000000000,  0.194509427732,  0.000000000000
RC =  0.000000000000, -0.000000000000,  0.158329462658
Grid_Origin -0.121591589265  0.189833587223  0.333768642930
Cell_Volume =  47815.194201431834 (Bohr^3)
GridVol     =      0.006832303698 (Bohr^3)
Grid_Origin -0.121591589265  0.189833587223  0.333768642930
Cell_Volume =  47815.194201431834 (Bohr^3)
GridVol     =      0.006832303698 (Bohr^3)
<UCell_Box> Info. of cutoff energy and num. of grids
lattice vectors (bohr)
A  = 37.299978480367,  0.000000000000,  0.000000000000
B  = -18.649989240184, 32.302728872609,  0.000000000000
C  =  0.000000000000,  0.000000000000, 39.684245760157
reciprocal lattice vectors (bohr^-1)
RA =  0.168450105420,  0.097254713866, -0.000000000000
RB =  0.000000000000,  0.194509427732,  0.000000000000
RC =  0.000000000000, -0.000000000000,  0.158329462658
Required cutoff energy (Ryd) for 3D-grids = 300.0000
    Used cutoff energy (Ryd) for 3D-grids = 306.4547, 306.4547, 292.3957
Num. of grids of a-, b-, and c-axes = 180, 180, 216
Grid_Origin -0.121591589265  0.189833587223  0.333768642930
Cell_Volume =  47815.194201431834 (Bohr^3)
GridVol     =      0.006832303698 (Bohr^3)
Cell vectors (bohr) of the grid cell (gtv)
  gtv_a =  0.207222102669,  0.000000000000,  0.000000000000
  gtv_b = -0.103611051334,  0.179459604848,  0.000000000000
  gtv_c =  0.000000000000,  0.000000000000,  0.183723360001
  |gtv_a| =  0.207222102669
  |gtv_b| =  0.207222102419
  |gtv_c| =  0.183723360001
Num. of grids overlapping with atom    1 = 132407
Num. of grids overlapping with atom    2 = 132448
Num. of grids overlapping with atom    3 = 132377
Num. of grids overlapping with atom    4 = 132421
Num. of grids overlapping with atom    5 = 132421
Num. of grids overlapping with atom    6 = 132466
Num. of grids overlapping with atom    7 = 132393
Num. of grids overlapping with atom    8 = 132398
Num. of grids overlapping with atom    9 = 132441
Num. of grids overlapping with atom   10 = 132407
Num. of grids overlapping with atom   11 = 132426
Num. of grids overlapping with atom   12 = 132475
Num. of grids overlapping with atom   13 = 132388
Num. of grids overlapping with atom   14 = 132383
Num. of grids overlapping with atom   15 = 132410
Num. of grids overlapping with atom   16 = 132404
Num. of grids overlapping with atom   17 = 132437
Num. of grids overlapping with atom   18 = 132402
Num. of grids overlapping with atom   19 = 132408
Num. of grids overlapping with atom   20 = 132420
     ..........
     ......


*******************************************************
             SCF calculation at MD = 1                
*******************************************************

<MD= 1>  Calculation of the overlap matrix
<MD= 1>  Calculation of the nonlocal matrix
<MD= 1>  Calculation of the VNA projector matrix

******************* MD= 1  SCF= 1 *******************
<Band>  Solving the eigenvalue problem...
 KGrids1:  -0.43750  -0.31250  -0.18750  -0.06250   0.06250   0.18750   0.31250   0.43750 
 KGrids2:  -0.43750  -0.31250  -0.18750  -0.06250   0.06250   0.18750   0.31250   0.43750 
 KGrids3:   0.00000 
<Band_DFT>  Eigen, time=18.607410
<Band_DFT>  DM, time=0.000094
    1    C  MulP   1.9913  1.9913 sum   3.9825
    2    C  MulP   1.9942  1.9942 sum   3.9883
    3    C  MulP   1.9900  1.9900 sum   3.9800
    4    C  MulP   1.9908  1.9908 sum   3.9815
    5    C  MulP   1.9944  1.9944 sum   3.9887
    6    C  MulP   1.9893  1.9893 sum   3.9786
    7    C  MulP   1.9914  1.9914 sum   3.9827
    8    C  MulP   1.9959  1.9959 sum   3.9917
    9    C  MulP   1.9895  1.9895 sum   3.9790
   10    C  MulP   1.9912  1.9912 sum   3.9823
   11    C  MulP   1.9777  1.9777 sum   3.9553
   12    C  MulP   1.9928  1.9928 sum   3.9855
   13    C  MulP   1.9915  1.9915 sum   3.9829
   14    C  MulP   1.9921  1.9921 sum   3.9842
   15    C  MulP   1.9953  1.9953 sum   3.9906
   16    C  MulP   1.9914  1.9914 sum   3.9828
   17    C  MulP   1.9931  1.9931 sum   3.9862
   18    C  MulP   1.9885  1.9885 sum   3.9769
   19    C  MulP   2.0534  2.0534 sum   4.1068
   20    C  MulP   2.0642  2.0642 sum   4.1284
     ..........
     ......

 Sum of MulP: up   =   243.50000 down          =   243.50000
              total=   487.00000 ideal(neutral)=   487.00000
<DFT>  Total Spin Moment (muB) =  0.000000000000
<DFT>  Mixing_weight= 0.050000000000
<DFT>  Uele   = -199.109236766944  dUele     =   1.000000000000
<DFT>  NormRD =    1.000000000000  Criterion =   0.000000010000

******************* MD= 1  SCF= 2 *******************
<Poisson>  Poisson's equation using FFT...
<Set_Hamiltonian>  Hamiltonian matrix for VNA+dVH+Vxc...
<Band>  Solving the eigenvalue problem...
 KGrids1:  -0.43750  -0.31250  -0.18750  -0.06250   0.06250   0.18750   0.31250   0.43750 
 KGrids2:  -0.43750  -0.31250  -0.18750  -0.06250   0.06250   0.18750   0.31250   0.43750 
 KGrids3:   0.00000 
<Band_DFT>  Eigen, time=10.822372
<Band_DFT>  DM, time=0.000000
    1    C  MulP   1.9913  1.9913 sum   3.9825
    2    C  MulP   1.9942  1.9942 sum   3.9883
    3    C  MulP   1.9900  1.9900 sum   3.9800
    4    C  MulP   1.9908  1.9908 sum   3.9815
    5    C  MulP   1.9944  1.9944 sum   3.9887
    6    C  MulP   1.9893  1.9893 sum   3.9786
    7    C  MulP   1.9914  1.9914 sum   3.9827
    8    C  MulP   1.9959  1.9959 sum   3.9917
    9    C  MulP   1.9895  1.9895 sum   3.9790
   10    C  MulP   1.9912  1.9912 sum   3.9823
   11    C  MulP   1.9777  1.9777 sum   3.9553
   12    C  MulP   1.9928  1.9928 sum   3.9855
   13    C  MulP   1.9915  1.9915 sum   3.9829
   14    C  MulP   1.9921  1.9921 sum   3.9842
   15    C  MulP   1.9953  1.9953 sum   3.9906
   16    C  MulP   1.9914  1.9914 sum   3.9828
   17    C  MulP   1.9931  1.9931 sum   3.9862
   18    C  MulP   1.9885  1.9885 sum   3.9769
   19    C  MulP   2.0534  2.0534 sum   4.1068
   20    C  MulP   2.0642  2.0642 sum   4.1284
     ..........
     ......

 Sum of MulP: up   =   243.50000 down          =   243.50000
              total=   487.00000 ideal(neutral)=   487.00000
<DFT>  Total Spin Moment (muB) =  0.000000000000
<DFT>  Mixing_weight= 0.010000000000
<DFT>  Uele   = -199.109236766944  dUele     =   0.000000000000
<DFT>  NormRD =   10.361447229544  Criterion =   0.000000010000

******************* MD= 1  SCF= 3 *******************
<Poisson>  Poisson's equation using FFT...
<Set_Hamiltonian>  Hamiltonian matrix for VNA+dVH+Vxc...
<Band>  Solving the eigenvalue problem...
 KGrids1:  -0.43750  -0.31250  -0.18750  -0.06250   0.06250   0.18750   0.31250   0.43750 
 KGrids2:  -0.43750  -0.31250  -0.18750  -0.06250   0.06250   0.18750   0.31250   0.43750 
 KGrids3:   0.00000 
<Band_DFT>  Eigen, time=10.792734
<Band_DFT>  DM, time=0.000000
    1    C  MulP   1.9914  1.9914 sum   3.9828
    2    C  MulP   1.9942  1.9942 sum   3.9884
    3    C  MulP   1.9901  1.9901 sum   3.9802
    4    C  MulP   1.9909  1.9909 sum   3.9818
    5    C  MulP   1.9944  1.9944 sum   3.9889
    6    C  MulP   1.9895  1.9895 sum   3.9790
    7    C  MulP   1.9915  1.9915 sum   3.9830
    8    C  MulP   1.9959  1.9959 sum   3.9918
    9    C  MulP   1.9897  1.9897 sum   3.9794
   10    C  MulP   1.9913  1.9913 sum   3.9825
   11    C  MulP   1.9776  1.9776 sum   3.9552
   12    C  MulP   1.9929  1.9929 sum   3.9857
   13    C  MulP   1.9915  1.9915 sum   3.9830
   14    C  MulP   1.9922  1.9922 sum   3.9843
   15    C  MulP   1.9953  1.9953 sum   3.9907
   16    C  MulP   1.9915  1.9915 sum   3.9831
   17    C  MulP   1.9932  1.9932 sum   3.9865
   18    C  MulP   1.9887  1.9887 sum   3.9775
   19    C  MulP   2.0527  2.0527 sum   4.1054
   20    C  MulP   2.0633  2.0633 sum   4.1265
     ..........
     ......

 Sum of MulP: up   =   243.50000 down          =   243.50000
              total=   487.00000 ideal(neutral)=   487.00000
<DFT>  Total Spin Moment (muB) =  0.000000000000
<DFT>  Mixing_weight= 0.300000000000
<DFT>  Uele   = -199.488471339460  dUele     =   0.379234572516
<DFT>  NormRD =   10.226448339232  Criterion =   0.000000010000

******************* MD= 1  SCF= 4 *******************
<Poisson>  Poisson's equation using FFT...
<Set_Hamiltonian>  Hamiltonian matrix for VNA+dVH+Vxc...
<Band>  Solving the eigenvalue problem...
 KGrids1:  -0.43750  -0.31250  -0.18750  -0.06250   0.06250   0.18750   0.31250   0.43750 
 KGrids2:  -0.43750  -0.31250  -0.18750  -0.06250   0.06250   0.18750   0.31250   0.43750 
 KGrids3:   0.00000 
<Band_DFT>  Eigen, time=10.800694
<Band_DFT>  DM, time=0.000001
    1    C  MulP   1.9958  1.9958 sum   3.9916
    2    C  MulP   1.9962  1.9962 sum   3.9924
    3    C  MulP   1.9939  1.9939 sum   3.9879
    4    C  MulP   1.9955  1.9955 sum   3.9910
    5    C  MulP   1.9960  1.9960 sum   3.9920
    6    C  MulP   1.9953  1.9953 sum   3.9905
    7    C  MulP   1.9960  1.9960 sum   3.9920
    8    C  MulP   1.9971  1.9971 sum   3.9942
    9    C  MulP   1.9957  1.9957 sum   3.9914
   10    C  MulP   1.9940  1.9940 sum   3.9880
   11    C  MulP   1.9761  1.9761 sum   3.9523
   12    C  MulP   1.9956  1.9956 sum   3.9911
   13    C  MulP   1.9918  1.9918 sum   3.9837
   14    C  MulP   1.9948  1.9948 sum   3.9896
   15    C  MulP   1.9965  1.9965 sum   3.9929
   16    C  MulP   1.9960  1.9960 sum   3.9920
   17    C  MulP   1.9975  1.9975 sum   3.9949
   18    C  MulP   1.9966  1.9966 sum   3.9932
   19    C  MulP   2.0338  2.0338 sum   4.0675
   20    C  MulP   2.0366  2.0366 sum   4.0733
     ..........
     ......

 Sum of MulP: up   =   243.50000 down          =   243.50000
              total=   487.00000 ideal(neutral)=   487.00000
<DFT>  Total Spin Moment (muB) =  0.000000000000
<DFT>  Mixing_weight= 0.300000000000
<DFT>  Uele   = -210.795881382333  dUele     =  11.307410042873
<DFT>  NormRD =    6.436505025881  Criterion =   0.000000010000

******************* MD= 1  SCF= 5 *******************
<Poisson>  Poisson's equation using FFT...
<Set_Hamiltonian>  Hamiltonian matrix for VNA+dVH+Vxc...
<Band>  Solving the eigenvalue problem...
 KGrids1:  -0.43750  -0.31250  -0.18750  -0.06250   0.06250   0.18750   0.31250   0.43750 
 KGrids2:  -0.43750  -0.31250  -0.18750  -0.06250   0.06250   0.18750   0.31250   0.43750 
 KGrids3:   0.00000 
<Band_DFT>  Eigen, time=10.809716
<Band_DFT>  DM, time=0.000001
    1    C  MulP   1.9967  1.9967 sum   3.9934
    2    C  MulP   1.9965  1.9965 sum   3.9931
    3    C  MulP   1.9953  1.9953 sum   3.9906
    4    C  MulP   1.9965  1.9965 sum   3.9930
    5    C  MulP   1.9974  1.9974 sum   3.9949
    6    C  MulP   1.9967  1.9967 sum   3.9935
    7    C  MulP   1.9972  1.9972 sum   3.9945
    8    C  MulP   1.9981  1.9981 sum   3.9962
    9    C  MulP   1.9969  1.9969 sum   3.9938
   10    C  MulP   1.9940  1.9940 sum   3.9879
   11    C  MulP   1.9767  1.9767 sum   3.9534
   12    C  MulP   1.9959  1.9959 sum   3.9917
   13    C  MulP   1.9949  1.9949 sum   3.9898
   14    C  MulP   1.9964  1.9964 sum   3.9928
   15    C  MulP   1.9976  1.9976 sum   3.9953
   16    C  MulP   1.9972  1.9972 sum   3.9945
   17    C  MulP   1.9984  1.9984 sum   3.9969
   18    C  MulP   1.9972  1.9972 sum   3.9944
   19    C  MulP   2.0327  2.0327 sum   4.0654
   20    C  MulP   2.0379  2.0379 sum   4.0759
     ..........
     ......

 Sum of MulP: up   =   243.50000 down          =   243.50000
              total=   487.00000 ideal(neutral)=   487.00000
<DFT>  Total Spin Moment (muB) =  0.000000000000
<DFT>  Mixing_weight= 0.300000000000
<DFT>  Uele   = -218.334026611416  dUele     =   7.538145229083
<DFT>  NormRD =    4.317725811327  Criterion =   0.000000010000

******************* MD= 1  SCF= 6 *******************
<Poisson>  Poisson's equation using FFT...
<Set_Hamiltonian>  Hamiltonian matrix for VNA+dVH+Vxc...
<Band>  Solving the eigenvalue problem...
 KGrids1:  -0.43750  -0.31250  -0.18750  -0.06250   0.06250   0.18750   0.31250   0.43750 
 KGrids2:  -0.43750  -0.31250  -0.18750  -0.06250   0.06250   0.18750   0.31250   0.43750 
 KGrids3:   0.00000 
<Band_DFT>  Eigen, time=10.819792
<Band_DFT>  DM, time=0.000000
    1    C  MulP   1.9974  1.9974 sum   3.9949
    2    C  MulP   1.9972  1.9972 sum   3.9943
    3    C  MulP   1.9962  1.9962 sum   3.9924
    4    C  MulP   1.9975  1.9975 sum   3.9951
    5    C  MulP   1.9985  1.9985 sum   3.9971
    6    C  MulP   1.9976  1.9976 sum   3.9952
    7    C  MulP   1.9980  1.9980 sum   3.9960
    8    C  MulP   1.9987  1.9987 sum   3.9974
    9    C  MulP   1.9976  1.9976 sum   3.9951
   10    C  MulP   1.9941  1.9941 sum   3.9883
   11    C  MulP   1.9778  1.9778 sum   3.9557
   12    C  MulP   1.9962  1.9962 sum   3.9924
   13    C  MulP   1.9971  1.9971 sum   3.9943
   14    C  MulP   1.9975  1.9975 sum   3.9950
   15    C  MulP   1.9985  1.9985 sum   3.9970
   16    C  MulP   1.9980  1.9980 sum   3.9960
   17    C  MulP   1.9990  1.9990 sum   3.9981
   18    C  MulP   1.9967  1.9967 sum   3.9934
   19    C  MulP   2.0303  2.0303 sum   4.0605
   20    C  MulP   2.0361  2.0361 sum   4.0722
     ..........
     ......

 Sum of MulP: up   =   243.50000 down          =   243.50000
              total=   487.00000 ideal(neutral)=   487.00000
<DFT>  Total Spin Moment (muB) =  0.000000000000
<DFT>  Mixing_weight= 0.300000000000
<DFT>  Uele   = -223.271636087080  dUele     =   4.937609475664
<DFT>  NormRD =    2.926239995335  Criterion =   0.000000010000

******************* MD= 1  SCF= 7 *******************
<Poisson>  Poisson's equation using FFT...
<Set_Hamiltonian>  Hamiltonian matrix for VNA+dVH+Vxc...
<Band>  Solving the eigenvalue problem...
 KGrids1:  -0.43750  -0.31250  -0.18750  -0.06250   0.06250   0.18750   0.31250   0.43750 
 KGrids2:  -0.43750  -0.31250  -0.18750  -0.06250   0.06250   0.18750   0.31250   0.43750 
 KGrids3:   0.00000 
<Band_DFT>  Eigen, time=10.797619
<Band_DFT>  DM, time=0.000000
    1    C  MulP   1.9977  1.9977 sum   3.9955
    2    C  MulP   1.9974  1.9974 sum   3.9949
    3    C  MulP   1.9966  1.9966 sum   3.9932
    4    C  MulP   1.9978  1.9978 sum   3.9957
    5    C  MulP   1.9989  1.9989 sum   3.9978
    6    C  MulP   1.9980  1.9980 sum   3.9959
    7    C  MulP   1.9983  1.9983 sum   3.9967
    8    C  MulP   1.9990  1.9990 sum   3.9980
    9    C  MulP   1.9978  1.9978 sum   3.9957
   10    C  MulP   1.9942  1.9942 sum   3.9884
   11    C  MulP   1.9785  1.9785 sum   3.9570
   12    C  MulP   1.9963  1.9963 sum   3.9927
   13    C  MulP   1.9976  1.9976 sum   3.9951
   14    C  MulP   1.9980  1.9980 sum   3.9959
   15    C  MulP   1.9989  1.9989 sum   3.9977
   16    C  MulP   1.9983  1.9983 sum   3.9967
   17    C  MulP   1.9992  1.9992 sum   3.9984
   18    C  MulP   1.9962  1.9962 sum   3.9925
   19    C  MulP   2.0293  2.0293 sum   4.0587
   20    C  MulP   2.0354  2.0354 sum   4.0707
     ..........
     ......

 Sum of MulP: up   =   243.50000 down          =   243.50000
              total=   487.00000 ideal(neutral)=   487.00000
<DFT>  Total Spin Moment (muB) =  0.000000000000
<DFT>  Mixing_weight= 0.300000000000
<DFT>  Uele   = -226.516890490069  dUele     =   3.245254402989
<DFT>  NormRD =    1.994201335223  Criterion =   0.000000010000

******************* MD= 1  SCF= 8 *******************
<Poisson>  Poisson's equation using FFT...
<Set_Hamiltonian>  Hamiltonian matrix for VNA+dVH+Vxc...
<Band>  Solving the eigenvalue problem...
 KGrids1:  -0.43750  -0.31250  -0.18750  -0.06250   0.06250   0.18750   0.31250   0.43750 
 KGrids2:  -0.43750  -0.31250  -0.18750  -0.06250   0.06250   0.18750   0.31250   0.43750 
 KGrids3:   0.00000 
<Band_DFT>  Eigen, time=10.848034
<Band_DFT>  DM, time=0.000000
    1    C  MulP   1.9980  1.9980 sum   3.9959
    2    C  MulP   1.9977  1.9977 sum   3.9953
    3    C  MulP   1.9969  1.9969 sum   3.9937
    4    C  MulP   1.9981  1.9981 sum   3.9961
    5    C  MulP   1.9992  1.9992 sum   3.9983
    6    C  MulP   1.9982  1.9982 sum   3.9964
    7    C  MulP   1.9986  1.9986 sum   3.9972
    8    C  MulP   1.9992  1.9992 sum   3.9984
    9    C  MulP   1.9980  1.9980 sum   3.9961
   10    C  MulP   1.9943  1.9943 sum   3.9885
   11    C  MulP   1.9790  1.9790 sum   3.9579
   12    C  MulP   1.9964  1.9964 sum   3.9929
   13    C  MulP   1.9979  1.9979 sum   3.9959
   14    C  MulP   1.9982  1.9982 sum   3.9965
   15    C  MulP   1.9991  1.9991 sum   3.9982
   16    C  MulP   1.9986  1.9986 sum   3.9971
   17    C  MulP   1.9994  1.9994 sum   3.9987
   18    C  MulP   1.9959  1.9959 sum   3.9918
   19    C  MulP   2.0284  2.0284 sum   4.0567
   20    C  MulP   2.0347  2.0347 sum   4.0693
     ..........
     ......

 Sum of MulP: up   =   243.50000 down          =   243.50000
              total=   487.00000 ideal(neutral)=   487.00000
<DFT>  Total Spin Moment (muB) =  0.000000000000
<DFT>  Mixing_weight= 0.300000000000
<DFT>  Uele   = -228.705864870881  dUele     =   2.188974380812
<DFT>  NormRD =    1.365914913363  Criterion =   0.000000010000

******************* MD= 1  SCF= 9 *******************
<Poisson>  Poisson's equation using FFT...
<Set_Hamiltonian>  Hamiltonian matrix for VNA+dVH+Vxc...
<Band>  Solving the eigenvalue problem...
 KGrids1:  -0.43750  -0.31250  -0.18750  -0.06250   0.06250   0.18750   0.31250   0.43750 
 KGrids2:  -0.43750  -0.31250  -0.18750  -0.06250   0.06250   0.18750   0.31250   0.43750 
 KGrids3:   0.00000 
<Band_DFT>  Eigen, time=10.810406
<Band_DFT>  DM, time=0.000000
    1    C  MulP   1.9981  1.9981 sum   3.9962
    2    C  MulP   1.9978  1.9978 sum   3.9956
    3    C  MulP   1.9970  1.9970 sum   3.9940
    4    C  MulP   1.9982  1.9982 sum   3.9964
    5    C  MulP   1.9993  1.9993 sum   3.9986
    6    C  MulP   1.9983  1.9983 sum   3.9966
    7    C  MulP   1.9987  1.9987 sum   3.9974
    8    C  MulP   1.9993  1.9993 sum   3.9986
    9    C  MulP   1.9982  1.9982 sum   3.9963
   10    C  MulP   1.9943  1.9943 sum   3.9887
   11    C  MulP   1.9793  1.9793 sum   3.9585
   12    C  MulP   1.9965  1.9965 sum   3.9930
   13    C  MulP   1.9981  1.9981 sum   3.9962
   14    C  MulP   1.9984  1.9984 sum   3.9968
   15    C  MulP   1.9992  1.9992 sum   3.9985
   16    C  MulP   1.9987  1.9987 sum   3.9974
   17    C  MulP   1.9994  1.9994 sum   3.9988
   18    C  MulP   1.9957  1.9957 sum   3.9915
   19    C  MulP   2.0278  2.0278 sum   4.0556
   20    C  MulP   2.0341  2.0341 sum   4.0682
     ..........
     ......

 Sum of MulP: up   =   243.50000 down          =   243.50000
              total=   487.00000 ideal(neutral)=   487.00000
<DFT>  Total Spin Moment (muB) =  0.000000000000
<DFT>  Mixing_weight= 0.300000000000
<DFT>  Uele   = -230.221724439780  dUele     =   1.515859568899
<DFT>  NormRD =    0.939711430657  Criterion =   0.000000010000

******************* MD= 1  SCF=10 *******************
<Poisson>  Poisson's equation using FFT...
<Set_Hamiltonian>  Hamiltonian matrix for VNA+dVH+Vxc...
<Band>  Solving the eigenvalue problem...
 KGrids1:  -0.43750  -0.31250  -0.18750  -0.06250   0.06250   0.18750   0.31250   0.43750 
 KGrids2:  -0.43750  -0.31250  -0.18750  -0.06250   0.06250   0.18750   0.31250   0.43750 
 KGrids3:   0.00000 
<Band_DFT>  Eigen, time=10.810120
<Band_DFT>  DM, time=0.000001
    1    C  MulP   1.9982  1.9982 sum   3.9964
    2    C  MulP   1.9979  1.9979 sum   3.9958
    3    C  MulP   1.9971  1.9971 sum   3.9942
    4    C  MulP   1.9983  1.9983 sum   3.9966
    5    C  MulP   1.9994  1.9994 sum   3.9988
    6    C  MulP   1.9984  1.9984 sum   3.9968
    7    C  MulP   1.9988  1.9988 sum   3.9976
    8    C  MulP   1.9994  1.9994 sum   3.9987
    9    C  MulP   1.9982  1.9982 sum   3.9965
   10    C  MulP   1.9944  1.9944 sum   3.9887
   11    C  MulP   1.9794  1.9794 sum   3.9589
   12    C  MulP   1.9966  1.9966 sum   3.9931
   13    C  MulP   1.9982  1.9982 sum   3.9964
   14    C  MulP   1.9985  1.9985 sum   3.9969
   15    C  MulP   1.9993  1.9993 sum   3.9987
   16    C  MulP   1.9988  1.9988 sum   3.9976
   17    C  MulP   1.9995  1.9995 sum   3.9990
   18    C  MulP   1.9956  1.9956 sum   3.9913
   19    C  MulP   2.0273  2.0273 sum   4.0546
   20    C  MulP   2.0338  2.0338 sum   4.0675
     ..........
     ......

 Sum of MulP: up   =   243.50000 down          =   243.50000
              total=   487.00000 ideal(neutral)=   487.00000
<DFT>  Total Spin Moment (muB) =  0.000000000000
<DFT>  Mixing_weight= 0.300000000000
<DFT>  Uele   = -231.304002948647  dUele     =   1.082278508867
<DFT>  NormRD =    0.649017358813  Criterion =   0.000000010000

******************* MD= 1  SCF=11 *******************
<Poisson>  Poisson's equation using FFT...
<Set_Hamiltonian>  Hamiltonian matrix for VNA+dVH+Vxc...
<Band>  Solving the eigenvalue problem...
 KGrids1:  -0.43750  -0.31250  -0.18750  -0.06250   0.06250   0.18750   0.31250   0.43750 
 KGrids2:  -0.43750  -0.31250  -0.18750  -0.06250   0.06250   0.18750   0.31250   0.43750 
 KGrids3:   0.00000 
<Band_DFT>  Eigen, time=10.877696
<Band_DFT>  DM, time=0.000000
    1    C  MulP   1.9982  1.9982 sum   3.9965
    2    C  MulP   1.9979  1.9979 sum   3.9959
    3    C  MulP   1.9972  1.9972 sum   3.9943
    4    C  MulP   1.9983  1.9983 sum   3.9967
    5    C  MulP   1.9995  1.9995 sum   3.9989
    6    C  MulP   1.9985  1.9985 sum   3.9969
    7    C  MulP   1.9989  1.9989 sum   3.9977
    8    C  MulP   1.9994  1.9994 sum   3.9989
    9    C  MulP   1.9983  1.9983 sum   3.9966
   10    C  MulP   1.9944  1.9944 sum   3.9888
   11    C  MulP   1.9796  1.9796 sum   3.9592
   12    C  MulP   1.9966  1.9966 sum   3.9932
   13    C  MulP   1.9983  1.9983 sum   3.9965
   14    C  MulP   1.9985  1.9985 sum   3.9971
   15    C  MulP   1.9994  1.9994 sum   3.9988
   16    C  MulP   1.9989  1.9989 sum   3.9977
   17    C  MulP   1.9995  1.9995 sum   3.9990
   18    C  MulP   1.9956  1.9956 sum   3.9912
   19    C  MulP   2.0270  2.0270 sum   4.0540
   20    C  MulP   2.0335  2.0335 sum   4.0669
     ..........
     ......

 Sum of MulP: up   =   243.50000 down          =   243.50000
              total=   487.00000 ideal(neutral)=   487.00000
<DFT>  Total Spin Moment (muB) =  0.000000000000
<DFT>  Mixing_weight= 0.300000000000
<DFT>  Uele   = -232.100080266891  dUele     =   0.796077318243
<DFT>  NormRD =    0.449855090372  Criterion =   0.000000010000

******************* MD= 1  SCF=12 *******************
<Poisson>  Poisson's equation using FFT...
<Set_Hamiltonian>  Hamiltonian matrix for VNA+dVH+Vxc...
<Band>  Solving the eigenvalue problem...
 KGrids1:  -0.43750  -0.31250  -0.18750  -0.06250   0.06250   0.18750   0.31250   0.43750 
 KGrids2:  -0.43750  -0.31250  -0.18750  -0.06250   0.06250   0.18750   0.31250   0.43750 
 KGrids3:   0.00000 
<Band_DFT>  Eigen, time=10.833721
<Band_DFT>  DM, time=0.000000
    1    C  MulP   1.9983  1.9983 sum   3.9966
    2    C  MulP   1.9980  1.9980 sum   3.9960
    3    C  MulP   1.9972  1.9972 sum   3.9944
    4    C  MulP   1.9984  1.9984 sum   3.9968
    5    C  MulP   1.9995  1.9995 sum   3.9990
    6    C  MulP   1.9985  1.9985 sum   3.9970
    7    C  MulP   1.9989  1.9989 sum   3.9978
    8    C  MulP   1.9995  1.9995 sum   3.9989
    9    C  MulP   1.9983  1.9983 sum   3.9966
   10    C  MulP   1.9944  1.9944 sum   3.9889
   11    C  MulP   1.9797  1.9797 sum   3.9593
   12    C  MulP   1.9966  1.9966 sum   3.9932
   13    C  MulP   1.9983  1.9983 sum   3.9966
   14    C  MulP   1.9986  1.9986 sum   3.9972
   15    C  MulP   1.9994  1.9994 sum   3.9989
   16    C  MulP   1.9989  1.9989 sum   3.9978
   17    C  MulP   1.9995  1.9995 sum   3.9991
   18    C  MulP   1.9956  1.9956 sum   3.9911
   19    C  MulP   2.0267  2.0267 sum   4.0534
   20    C  MulP   2.0333  2.0333 sum   4.0665
     ..........
     ......

 Sum of MulP: up   =   243.50000 down          =   243.50000
              total=   487.00000 ideal(neutral)=   487.00000
<DFT>  Total Spin Moment (muB) =  0.000000000000
<DFT>  Mixing_weight= 0.300000000000
<DFT>  Uele   = -232.703221002550  dUele     =   0.603140735660
<DFT>  NormRD =    0.312893625383  Criterion =   0.000000010000

******************* MD= 1  SCF=13 *******************
<Poisson>  Poisson's equation using FFT...
<Set_Hamiltonian>  Hamiltonian matrix for VNA+dVH+Vxc...
<Band>  Solving the eigenvalue problem...
 KGrids1:  -0.43750  -0.31250  -0.18750  -0.06250   0.06250   0.18750   0.31250   0.43750 
 KGrids2:  -0.43750  -0.31250  -0.18750  -0.06250   0.06250   0.18750   0.31250   0.43750 
 KGrids3:   0.00000 
<Band_DFT>  Eigen, time=10.813239
<Band_DFT>  DM, time=0.000000
    1    C  MulP   1.9983  1.9983 sum   3.9966
    2    C  MulP   1.9980  1.9980 sum   3.9960
    3    C  MulP   1.9972  1.9972 sum   3.9945
    4    C  MulP   1.9984  1.9984 sum   3.9968
    5    C  MulP   1.9995  1.9995 sum   3.9990
    6    C  MulP   1.9985  1.9985 sum   3.9971
    7    C  MulP   1.9989  1.9989 sum   3.9979
    8    C  MulP   1.9995  1.9995 sum   3.9990
    9    C  MulP   1.9983  1.9983 sum   3.9967
   10    C  MulP   1.9945  1.9945 sum   3.9889
   11    C  MulP   1.9797  1.9797 sum   3.9594
   12    C  MulP   1.9966  1.9966 sum   3.9933
   13    C  MulP   1.9983  1.9983 sum   3.9966
   14    C  MulP   1.9986  1.9986 sum   3.9972
   15    C  MulP   1.9995  1.9995 sum   3.9989
   16    C  MulP   1.9989  1.9989 sum   3.9979
   17    C  MulP   1.9996  1.9996 sum   3.9991
   18    C  MulP   1.9955  1.9955 sum   3.9911
   19    C  MulP   2.0265  2.0265 sum   4.0531
   20    C  MulP   2.0331  2.0331 sum   4.0662
     ..........
     ......

 Sum of MulP: up   =   243.50000 down          =   243.50000
              total=   487.00000 ideal(neutral)=   487.00000
<DFT>  Total Spin Moment (muB) =  0.000000000000
<DFT>  Mixing_weight= 0.300000000000
<DFT>  Uele   = -233.172728193589  dUele     =   0.469507191038
<DFT>  NormRD =    0.218433360178  Criterion =   0.000000010000

******************* MD= 1  SCF=14 *******************
<Poisson>  Poisson's equation using FFT...
<Set_Hamiltonian>  Hamiltonian matrix for VNA+dVH+Vxc...
<Band>  Solving the eigenvalue problem...
 KGrids1:  -0.43750  -0.31250  -0.18750  -0.06250   0.06250   0.18750   0.31250   0.43750 
 KGrids2:  -0.43750  -0.31250  -0.18750  -0.06250   0.06250   0.18750   0.31250   0.43750 
 KGrids3:   0.00000 
<Band_DFT>  Eigen, time=10.844095
<Band_DFT>  DM, time=0.000000
    1    C  MulP   1.9983  1.9983 sum   3.9966
    2    C  MulP   1.9980  1.9980 sum   3.9960
    3    C  MulP   1.9973  1.9973 sum   3.9945
    4    C  MulP   1.9984  1.9984 sum   3.9969
    5    C  MulP   1.9995  1.9995 sum   3.9991
    6    C  MulP   1.9986  1.9986 sum   3.9971
    7    C  MulP   1.9990  1.9990 sum   3.9979
    8    C  MulP   1.9995  1.9995 sum   3.9990
    9    C  MulP   1.9984  1.9984 sum   3.9967
   10    C  MulP   1.9945  1.9945 sum   3.9890
   11    C  MulP   1.9798  1.9798 sum   3.9595
   12    C  MulP   1.9967  1.9967 sum   3.9933
   13    C  MulP   1.9983  1.9983 sum   3.9967
   14    C  MulP   1.9986  1.9986 sum   3.9973
   15    C  MulP   1.9995  1.9995 sum   3.9990
   16    C  MulP   1.9989  1.9989 sum   3.9979
   17    C  MulP   1.9996  1.9996 sum   3.9992
   18    C  MulP   1.9955  1.9955 sum   3.9911
   19    C  MulP   2.0264  2.0264 sum   4.0528
   20    C  MulP   2.0330  2.0330 sum   4.0659
     ..........
     ......

 Sum of MulP: up   =   243.50000 down          =   243.50000
              total=   487.00000 ideal(neutral)=   487.00000
<DFT>  Total Spin Moment (muB) =  0.000000000000
<DFT>  Mixing_weight= 0.300000000000
<DFT>  Uele   = -233.547180632389  dUele     =   0.374452438800
<DFT>  NormRD =    0.153144410159  Criterion =   0.000000010000

******************* MD= 1  SCF=15 *******************
<Poisson>  Poisson's equation using FFT...
<Set_Hamiltonian>  Hamiltonian matrix for VNA+dVH+Vxc...
<Band>  Solving the eigenvalue problem...
 KGrids1:  -0.43750  -0.31250  -0.18750  -0.06250   0.06250   0.18750   0.31250   0.43750 
 KGrids2:  -0.43750  -0.31250  -0.18750  -0.06250   0.06250   0.18750   0.31250   0.43750 
 KGrids3:   0.00000 
<Band_DFT>  Eigen, time=10.856316
<Band_DFT>  DM, time=0.000000
    1    C  MulP   1.9983  1.9983 sum   3.9967
    2    C  MulP   1.9980  1.9980 sum   3.9961
    3    C  MulP   1.9973  1.9973 sum   3.9946
    4    C  MulP   1.9984  1.9984 sum   3.9969
    5    C  MulP   1.9996  1.9996 sum   3.9991
    6    C  MulP   1.9986  1.9986 sum   3.9972
    7    C  MulP   1.9990  1.9990 sum   3.9979
    8    C  MulP   1.9995  1.9995 sum   3.9990
    9    C  MulP   1.9984  1.9984 sum   3.9968
   10    C  MulP   1.9945  1.9945 sum   3.9890
   11    C  MulP   1.9798  1.9798 sum   3.9596
   12    C  MulP   1.9967  1.9967 sum   3.9934
   13    C  MulP   1.9984  1.9984 sum   3.9967
   14    C  MulP   1.9986  1.9986 sum   3.9973
   15    C  MulP   1.9995  1.9995 sum   3.9990
   16    C  MulP   1.9990  1.9990 sum   3.9979
   17    C  MulP   1.9996  1.9996 sum   3.9992
   18    C  MulP   1.9955  1.9955 sum   3.9911
   19    C  MulP   2.0263  2.0263 sum   4.0526
   20    C  MulP   2.0329  2.0329 sum   4.0657
     ..........
     ......

 Sum of MulP: up   =   243.50000 down          =   243.50000
              total=   487.00000 ideal(neutral)=   487.00000
<DFT>  Total Spin Moment (muB) =  0.000000000000
<DFT>  Mixing_weight= 0.030000000000
<DFT>  Uele   = -233.852066719933  dUele     =   0.304886087545
<DFT>  NormRD =    0.108900408750  Criterion =   0.000000010000

******************* MD= 1  SCF=16 *******************
<Poisson>  Poisson's equation using FFT...
<Set_Hamiltonian>  Hamiltonian matrix for VNA+dVH+Vxc...
<Band>  Solving the eigenvalue problem...
 KGrids1:  -0.43750  -0.31250  -0.18750  -0.06250   0.06250   0.18750   0.31250   0.43750 
 KGrids2:  -0.43750  -0.31250  -0.18750  -0.06250   0.06250   0.18750   0.31250   0.43750 
 KGrids3:   0.00000 
<Band_DFT>  Eigen, time=10.811549
<Band_DFT>  DM, time=0.000001
    1    C  MulP   1.9985  1.9985 sum   3.9970
    2    C  MulP   1.9982  1.9982 sum   3.9964
    3    C  MulP   1.9974  1.9974 sum   3.9949
    4    C  MulP   1.9987  1.9987 sum   3.9973
    5    C  MulP   1.9998  1.9998 sum   3.9995
    6    C  MulP   1.9987  1.9987 sum   3.9975
    7    C  MulP   1.9991  1.9991 sum   3.9982
    8    C  MulP   1.9997  1.9997 sum   3.9993
    9    C  MulP   1.9985  1.9985 sum   3.9970
   10    C  MulP   1.9946  1.9946 sum   3.9891
   11    C  MulP   1.9799  1.9799 sum   3.9598
   12    C  MulP   1.9968  1.9968 sum   3.9936
   13    C  MulP   1.9987  1.9987 sum   3.9973
   14    C  MulP   1.9988  1.9988 sum   3.9976
   15    C  MulP   1.9997  1.9997 sum   3.9993
   16    C  MulP   1.9991  1.9991 sum   3.9982
   17    C  MulP   1.9997  1.9997 sum   3.9994
   18    C  MulP   1.9954  1.9954 sum   3.9908
   19    C  MulP   2.0252  2.0252 sum   4.0503
   20    C  MulP   2.0320  2.0320 sum   4.0641
     ..........
     ......

 Sum of MulP: up   =   243.50000 down          =   243.50000
              total=   487.00000 ideal(neutral)=   487.00000
<DFT>  Total Spin Moment (muB) =  0.000000000000
<DFT>  Mixing_weight= 0.030000000000
<DFT>  Uele   = -235.545607182618  dUele     =   1.693540462684
<DFT>  NormRD =    0.017080423961  Criterion =   0.000000010000

******************* MD= 1  SCF=17 *******************
<Poisson>  Poisson's equation using FFT...
<Set_Hamiltonian>  Hamiltonian matrix for VNA+dVH+Vxc...
<Band>  Solving the eigenvalue problem...
 KGrids1:  -0.43750  -0.31250  -0.18750  -0.06250   0.06250   0.18750   0.31250   0.43750 
 KGrids2:  -0.43750  -0.31250  -0.18750  -0.06250   0.06250   0.18750   0.31250   0.43750 
 KGrids3:   0.00000 
<Band_DFT>  Eigen, time=10.836203
<Band_DFT>  DM, time=0.000001
    1    C  MulP   1.9980  1.9980 sum   3.9960
    2    C  MulP   1.9976  1.9976 sum   3.9952
    3    C  MulP   1.9969  1.9969 sum   3.9939
    4    C  MulP   1.9978  1.9978 sum   3.9956
    5    C  MulP   1.9990  1.9990 sum   3.9979
    6    C  MulP   1.9983  1.9983 sum   3.9965
    7    C  MulP   1.9987  1.9987 sum   3.9974
    8    C  MulP   1.9993  1.9993 sum   3.9985
    9    C  MulP   1.9982  1.9982 sum   3.9963
   10    C  MulP   1.9945  1.9945 sum   3.9889
   11    C  MulP   1.9797  1.9797 sum   3.9593
   12    C  MulP   1.9965  1.9965 sum   3.9930
   13    C  MulP   1.9971  1.9971 sum   3.9943
   14    C  MulP   1.9982  1.9982 sum   3.9964
   15    C  MulP   1.9991  1.9991 sum   3.9982
   16    C  MulP   1.9987  1.9987 sum   3.9974
   17    C  MulP   1.9994  1.9994 sum   3.9987
   18    C  MulP   1.9960  1.9960 sum   3.9920
   19    C  MulP   2.0285  2.0285 sum   4.0571
   20    C  MulP   2.0338  2.0338 sum   4.0677
     ..........
     ......

 Sum of MulP: up   =   243.50000 down          =   243.50000
              total=   487.00000 ideal(neutral)=   487.00000
<DFT>  Total Spin Moment (muB) =  0.000000000000
<DFT>  Mixing_weight= 0.030000000000
<DFT>  Uele   = -235.649998715893  dUele     =   0.104391533276
<DFT>  NormRD =    0.046165807507  Criterion =   0.000000010000

******************* MD= 1  SCF=18 *******************
<Poisson>  Poisson's equation using FFT...
<Set_Hamiltonian>  Hamiltonian matrix for VNA+dVH+Vxc...
<Band>  Solving the eigenvalue problem...
 KGrids1:  -0.43750  -0.31250  -0.18750  -0.06250   0.06250   0.18750   0.31250   0.43750 
 KGrids2:  -0.43750  -0.31250  -0.18750  -0.06250   0.06250   0.18750   0.31250   0.43750 
 KGrids3:   0.00000 
<Band_DFT>  Eigen, time=10.836129
<Band_DFT>  DM, time=0.000000
    1    C  MulP   1.9984  1.9984 sum   3.9968
    2    C  MulP   1.9981  1.9981 sum   3.9962
    3    C  MulP   1.9973  1.9973 sum   3.9947
    4    C  MulP   1.9985  1.9985 sum   3.9971
    5    C  MulP   1.9997  1.9997 sum   3.9994
    6    C  MulP   1.9986  1.9986 sum   3.9973
    7    C  MulP   1.9990  1.9990 sum   3.9980
    8    C  MulP   1.9996  1.9996 sum   3.9991
    9    C  MulP   1.9984  1.9984 sum   3.9969
   10    C  MulP   1.9945  1.9945 sum   3.9890
   11    C  MulP   1.9800  1.9800 sum   3.9600
   12    C  MulP   1.9967  1.9967 sum   3.9935
   13    C  MulP   1.9986  1.9986 sum   3.9973
   14    C  MulP   1.9987  1.9987 sum   3.9975
   15    C  MulP   1.9996  1.9996 sum   3.9991
   16    C  MulP   1.9990  1.9990 sum   3.9980
   17    C  MulP   1.9997  1.9997 sum   3.9993
   18    C  MulP   1.9955  1.9955 sum   3.9909
   19    C  MulP   2.0259  2.0259 sum   4.0517
   20    C  MulP   2.0331  2.0331 sum   4.0663
     ..........
     ......

 Sum of MulP: up   =   243.50000 down          =   243.50000
              total=   487.00000 ideal(neutral)=   487.00000
<DFT>  Total Spin Moment (muB) =  0.000000000000
<DFT>  Mixing_weight= 0.030000000000
<DFT>  Uele   = -235.688141726687  dUele     =   0.038143010794
<DFT>  NormRD =    0.009807975721  Criterion =   0.000000010000

******************* MD= 1  SCF=19 *******************
<Poisson>  Poisson's equation using FFT...
<Set_Hamiltonian>  Hamiltonian matrix for VNA+dVH+Vxc...
<Band>  Solving the eigenvalue problem...
 KGrids1:  -0.43750  -0.31250  -0.18750  -0.06250   0.06250   0.18750   0.31250   0.43750 
 KGrids2:  -0.43750  -0.31250  -0.18750  -0.06250   0.06250   0.18750   0.31250   0.43750 
 KGrids3:   0.00000 
<Band_DFT>  Eigen, time=10.844767
<Band_DFT>  DM, time=0.000000
    1    C  MulP   1.9984  1.9984 sum   3.9968
    2    C  MulP   1.9981  1.9981 sum   3.9961
    3    C  MulP   1.9973  1.9973 sum   3.9946
    4    C  MulP   1.9984  1.9984 sum   3.9969
    5    C  MulP   1.9995  1.9995 sum   3.9990
    6    C  MulP   1.9986  1.9986 sum   3.9972
    7    C  MulP   1.9990  1.9990 sum   3.9981
    8    C  MulP   1.9995  1.9995 sum   3.9991
    9    C  MulP   1.9984  1.9984 sum   3.9968
   10    C  MulP   1.9946  1.9946 sum   3.9891
   11    C  MulP   1.9797  1.9797 sum   3.9594
   12    C  MulP   1.9967  1.9967 sum   3.9934
   13    C  MulP   1.9981  1.9981 sum   3.9962
   14    C  MulP   1.9986  1.9986 sum   3.9973
   15    C  MulP   1.9995  1.9995 sum   3.9990
   16    C  MulP   1.9990  1.9990 sum   3.9980
   17    C  MulP   1.9996  1.9996 sum   3.9992
   18    C  MulP   1.9957  1.9957 sum   3.9913
   19    C  MulP   2.0260  2.0260 sum   4.0520
   20    C  MulP   2.0315  2.0315 sum   4.0630
     ..........
     ......

 Sum of MulP: up   =   243.50000 down          =   243.50000
              total=   487.00000 ideal(neutral)=   487.00000
<DFT>  Total Spin Moment (muB) =  0.000000000000
<DFT>  Mixing_weight= 0.030000000000
<DFT>  Uele   = -235.712793764587  dUele     =   0.024652037900
<DFT>  NormRD =    0.011343497657  Criterion =   0.000000010000

******************* MD= 1  SCF=20 *******************
<Poisson>  Poisson's equation using FFT...
<Set_Hamiltonian>  Hamiltonian matrix for VNA+dVH+Vxc...
<Band>  Solving the eigenvalue problem...
 KGrids1:  -0.43750  -0.31250  -0.18750  -0.06250   0.06250   0.18750   0.31250   0.43750 
 KGrids2:  -0.43750  -0.31250  -0.18750  -0.06250   0.06250   0.18750   0.31250   0.43750 
 KGrids3:   0.00000 
<Band_DFT>  Eigen, time=10.829285
<Band_DFT>  DM, time=0.000000
    1    C  MulP   1.9983  1.9983 sum   3.9967
    2    C  MulP   1.9981  1.9981 sum   3.9961
    3    C  MulP   1.9973  1.9973 sum   3.9946
    4    C  MulP   1.9984  1.9984 sum   3.9968
    5    C  MulP   1.9996  1.9996 sum   3.9991
    6    C  MulP   1.9986  1.9986 sum   3.9972
    7    C  MulP   1.9990  1.9990 sum   3.9980
    8    C  MulP   1.9995  1.9995 sum   3.9991
    9    C  MulP   1.9984  1.9984 sum   3.9968
   10    C  MulP   1.9945  1.9945 sum   3.9891
   11    C  MulP   1.9800  1.9800 sum   3.9599
   12    C  MulP   1.9967  1.9967 sum   3.9935
   13    C  MulP   1.9984  1.9984 sum   3.9968
   14    C  MulP   1.9987  1.9987 sum   3.9973
   15    C  MulP   1.9995  1.9995 sum   3.9990
   16    C  MulP   1.9990  1.9990 sum   3.9979
   17    C  MulP   1.9996  1.9996 sum   3.9992
   18    C  MulP   1.9955  1.9955 sum   3.9911
   19    C  MulP   2.0261  2.0261 sum   4.0523
   20    C  MulP   2.0333  2.0333 sum   4.0667
     ..........
     ......

 Sum of MulP: up   =   243.50000 down          =   243.50000
              total=   487.00000 ideal(neutral)=   487.00000
<DFT>  Total Spin Moment (muB) =  0.000000000000
<DFT>  Mixing_weight= 0.030000000000
<DFT>  Uele   = -235.748722997338  dUele     =   0.035929232751
<DFT>  NormRD =    0.006987544127  Criterion =   0.000000010000

******************* MD= 1  SCF=21 *******************
<Poisson>  Poisson's equation using FFT...
<Set_Hamiltonian>  Hamiltonian matrix for VNA+dVH+Vxc...
<Band>  Solving the eigenvalue problem...
 KGrids1:  -0.43750  -0.31250  -0.18750  -0.06250   0.06250   0.18750   0.31250   0.43750 
 KGrids2:  -0.43750  -0.31250  -0.18750  -0.06250   0.06250   0.18750   0.31250   0.43750 
 KGrids3:   0.00000 
<Band_DFT>  Eigen, time=10.842491
<Band_DFT>  DM, time=0.000001
    1    C  MulP   1.9984  1.9984 sum   3.9968
    2    C  MulP   1.9981  1.9981 sum   3.9962
    3    C  MulP   1.9973  1.9973 sum   3.9947
    4    C  MulP   1.9985  1.9985 sum   3.9970
    5    C  MulP   1.9996  1.9996 sum   3.9992
    6    C  MulP   1.9986  1.9986 sum   3.9973
    7    C  MulP   1.9990  1.9990 sum   3.9981
    8    C  MulP   1.9996  1.9996 sum   3.9991
    9    C  MulP   1.9984  1.9984 sum   3.9968
   10    C  MulP   1.9945  1.9945 sum   3.9891
   11    C  MulP   1.9799  1.9799 sum   3.9597
   12    C  MulP   1.9967  1.9967 sum   3.9935
   13    C  MulP   1.9984  1.9984 sum   3.9968
   14    C  MulP   1.9987  1.9987 sum   3.9974
   15    C  MulP   1.9995  1.9995 sum   3.9991
   16    C  MulP   1.9990  1.9990 sum   3.9980
   17    C  MulP   1.9996  1.9996 sum   3.9993
   18    C  MulP   1.9955  1.9955 sum   3.9911
   19    C  MulP   2.0259  2.0259 sum   4.0517
   20    C  MulP   2.0325  2.0325 sum   4.0650
     ..........
     ......

 Sum of MulP: up   =   243.50000 down          =   243.50000
              total=   487.00000 ideal(neutral)=   487.00000
<DFT>  Total Spin Moment (muB) =  0.000000000000
<DFT>  Mixing_weight= 0.030000000000
<DFT>  Uele   = -235.774075547745  dUele     =   0.025352550406
<DFT>  NormRD =    0.000929837354  Criterion =   0.000000010000

******************* MD= 1  SCF=22 *******************
<Poisson>  Poisson's equation using FFT...
<Set_Hamiltonian>  Hamiltonian matrix for VNA+dVH+Vxc...
<Band>  Solving the eigenvalue problem...
 KGrids1:  -0.43750  -0.31250  -0.18750  -0.06250   0.06250   0.18750   0.31250   0.43750 
 KGrids2:  -0.43750  -0.31250  -0.18750  -0.06250   0.06250   0.18750   0.31250   0.43750 
 KGrids3:   0.00000 
<Band_DFT>  Eigen, time=10.851009
<Band_DFT>  DM, time=0.000000
    1    C  MulP   1.9984  1.9984 sum   3.9968
    2    C  MulP   1.9981  1.9981 sum   3.9962
    3    C  MulP   1.9973  1.9973 sum   3.9947
    4    C  MulP   1.9985  1.9985 sum   3.9970
    5    C  MulP   1.9996  1.9996 sum   3.9992
    6    C  MulP   1.9986  1.9986 sum   3.9972
    7    C  MulP   1.9990  1.9990 sum   3.9980
    8    C  MulP   1.9996  1.9996 sum   3.9991
    9    C  MulP   1.9984  1.9984 sum   3.9969
   10    C  MulP   1.9945  1.9945 sum   3.9891
   11    C  MulP   1.9799  1.9799 sum   3.9598
   12    C  MulP   1.9967  1.9967 sum   3.9935
   13    C  MulP   1.9984  1.9984 sum   3.9968
   14    C  MulP   1.9987  1.9987 sum   3.9974
   15    C  MulP   1.9995  1.9995 sum   3.9991
   16    C  MulP   1.9990  1.9990 sum   3.9980
   17    C  MulP   1.9996  1.9996 sum   3.9993
   18    C  MulP   1.9955  1.9955 sum   3.9911
   19    C  MulP   2.0259  2.0259 sum   4.0518
   20    C  MulP   2.0325  2.0325 sum   4.0650
     ..........
     ......

 Sum of MulP: up   =   243.50000 down          =   243.50000
              total=   487.00000 ideal(neutral)=   487.00000
<DFT>  Total Spin Moment (muB) =  0.000000000000
<DFT>  Mixing_weight= 0.030000000000
<DFT>  Uele   = -235.787408456211  dUele     =   0.013332908467
<DFT>  NormRD =    0.000567226435  Criterion =   0.000000010000

******************* MD= 1  SCF=23 *******************
<Poisson>  Poisson's equation using FFT...
<Set_Hamiltonian>  Hamiltonian matrix for VNA+dVH+Vxc...
<Band>  Solving the eigenvalue problem...
 KGrids1:  -0.43750  -0.31250  -0.18750  -0.06250   0.06250   0.18750   0.31250   0.43750 
 KGrids2:  -0.43750  -0.31250  -0.18750  -0.06250   0.06250   0.18750   0.31250   0.43750 
 KGrids3:   0.00000 
<Band_DFT>  Eigen, time=10.831008
<Band_DFT>  DM, time=0.000001
    1    C  MulP   1.9984  1.9984 sum   3.9967
    2    C  MulP   1.9981  1.9981 sum   3.9962
    3    C  MulP   1.9973  1.9973 sum   3.9947
    4    C  MulP   1.9985  1.9985 sum   3.9970
    5    C  MulP   1.9996  1.9996 sum   3.9992
    6    C  MulP   1.9986  1.9986 sum   3.9973
    7    C  MulP   1.9990  1.9990 sum   3.9981
    8    C  MulP   1.9996  1.9996 sum   3.9991
    9    C  MulP   1.9984  1.9984 sum   3.9968
   10    C  MulP   1.9945  1.9945 sum   3.9891
   11    C  MulP   1.9799  1.9799 sum   3.9598
   12    C  MulP   1.9967  1.9967 sum   3.9935
   13    C  MulP   1.9984  1.9984 sum   3.9969
   14    C  MulP   1.9987  1.9987 sum   3.9974
   15    C  MulP   1.9996  1.9996 sum   3.9991
   16    C  MulP   1.9990  1.9990 sum   3.9980
   17    C  MulP   1.9996  1.9996 sum   3.9993
   18    C  MulP   1.9956  1.9956 sum   3.9911
   19    C  MulP   2.0259  2.0259 sum   4.0518
   20    C  MulP   2.0325  2.0325 sum   4.0650
     ..........
     ......

 Sum of MulP: up   =   243.50000 down          =   243.50000
              total=   487.00000 ideal(neutral)=   487.00000
<DFT>  Total Spin Moment (muB) =  0.000000000000
<DFT>  Mixing_weight= 0.030000000000
<DFT>  Uele   = -235.793507096284  dUele     =   0.006098640072
<DFT>  NormRD =    0.000490169144  Criterion =   0.000000010000

******************* MD= 1  SCF=24 *******************
<Poisson>  Poisson's equation using FFT...
<Set_Hamiltonian>  Hamiltonian matrix for VNA+dVH+Vxc...
<Band>  Solving the eigenvalue problem...
 KGrids1:  -0.43750  -0.31250  -0.18750  -0.06250   0.06250   0.18750   0.31250   0.43750 
 KGrids2:  -0.43750  -0.31250  -0.18750  -0.06250   0.06250   0.18750   0.31250   0.43750 
 KGrids3:   0.00000 
<Band_DFT>  Eigen, time=10.808632
<Band_DFT>  DM, time=0.000000
    1    C  MulP   1.9984  1.9984 sum   3.9968
    2    C  MulP   1.9981  1.9981 sum   3.9962
    3    C  MulP   1.9973  1.9973 sum   3.9947
    4    C  MulP   1.9985  1.9985 sum   3.9970
    5    C  MulP   1.9996  1.9996 sum   3.9992
    6    C  MulP   1.9986  1.9986 sum   3.9973
    7    C  MulP   1.9990  1.9990 sum   3.9980
    8    C  MulP   1.9996  1.9996 sum   3.9991
    9    C  MulP   1.9984  1.9984 sum   3.9968
   10    C  MulP   1.9945  1.9945 sum   3.9891
   11    C  MulP   1.9799  1.9799 sum   3.9598
   12    C  MulP   1.9967  1.9967 sum   3.9935
   13    C  MulP   1.9984  1.9984 sum   3.9968
   14    C  MulP   1.9987  1.9987 sum   3.9974
   15    C  MulP   1.9995  1.9995 sum   3.9991
   16    C  MulP   1.9990  1.9990 sum   3.9980
   17    C  MulP   1.9996  1.9996 sum   3.9993
   18    C  MulP   1.9955  1.9955 sum   3.9911
   19    C  MulP   2.0259  2.0259 sum   4.0518
   20    C  MulP   2.0325  2.0325 sum   4.0651
     ..........
     ......

 Sum of MulP: up   =   243.50000 down          =   243.50000
              total=   487.00000 ideal(neutral)=   487.00000
<DFT>  Total Spin Moment (muB) =  0.000000000000
<DFT>  Mixing_weight= 0.030000000000
<DFT>  Uele   = -235.796375615250  dUele     =   0.002868518967
<DFT>  NormRD =    0.000158605322  Criterion =   0.000000010000

******************* MD= 1  SCF=25 *******************
<Poisson>  Poisson's equation using FFT...
<Set_Hamiltonian>  Hamiltonian matrix for VNA+dVH+Vxc...
<Band>  Solving the eigenvalue problem...
 KGrids1:  -0.43750  -0.31250  -0.18750  -0.06250   0.06250   0.18750   0.31250   0.43750 
 KGrids2:  -0.43750  -0.31250  -0.18750  -0.06250   0.06250   0.18750   0.31250   0.43750 
 KGrids3:   0.00000 
<Band_DFT>  Eigen, time=10.833513
<Band_DFT>  DM, time=0.000001
    1    C  MulP   1.9984  1.9984 sum   3.9968
    2    C  MulP   1.9981  1.9981 sum   3.9962
    3    C  MulP   1.9973  1.9973 sum   3.9947
    4    C  MulP   1.9985  1.9985 sum   3.9970
    5    C  MulP   1.9996  1.9996 sum   3.9992
    6    C  MulP   1.9986  1.9986 sum   3.9972
    7    C  MulP   1.9990  1.9990 sum   3.9980
    8    C  MulP   1.9996  1.9996 sum   3.9991
    9    C  MulP   1.9984  1.9984 sum   3.9968
   10    C  MulP   1.9945  1.9945 sum   3.9891
   11    C  MulP   1.9799  1.9799 sum   3.9598
   12    C  MulP   1.9967  1.9967 sum   3.9935
   13    C  MulP   1.9984  1.9984 sum   3.9968
   14    C  MulP   1.9987  1.9987 sum   3.9974
   15    C  MulP   1.9995  1.9995 sum   3.9991
   16    C  MulP   1.9990  1.9990 sum   3.9980
   17    C  MulP   1.9996  1.9996 sum   3.9993
   18    C  MulP   1.9955  1.9955 sum   3.9911
   19    C  MulP   2.0259  2.0259 sum   4.0518
   20    C  MulP   2.0325  2.0325 sum   4.0651
     ..........
     ......

 Sum of MulP: up   =   243.50000 down          =   243.50000
              total=   487.00000 ideal(neutral)=   487.00000
<DFT>  Total Spin Moment (muB) =  0.000000000000
<DFT>  Mixing_weight= 0.030000000000
<DFT>  Uele   = -235.797950217097  dUele     =   0.001574601847
<DFT>  NormRD =    0.000155190229  Criterion =   0.000000010000

******************* MD= 1  SCF=26 *******************
<Poisson>  Poisson's equation using FFT...
<Set_Hamiltonian>  Hamiltonian matrix for VNA+dVH+Vxc...
<Band>  Solving the eigenvalue problem...
 KGrids1:  -0.43750  -0.31250  -0.18750  -0.06250   0.06250   0.18750   0.31250   0.43750 
 KGrids2:  -0.43750  -0.31250  -0.18750  -0.06250   0.06250   0.18750   0.31250   0.43750 
 KGrids3:   0.00000 
<Band_DFT>  Eigen, time=10.820515
<Band_DFT>  DM, time=0.000000
    1    C  MulP   1.9984  1.9984 sum   3.9968
    2    C  MulP   1.9981  1.9981 sum   3.9962
    3    C  MulP   1.9973  1.9973 sum   3.9947
    4    C  MulP   1.9985  1.9985 sum   3.9970
    5    C  MulP   1.9996  1.9996 sum   3.9992
    6    C  MulP   1.9986  1.9986 sum   3.9972
    7    C  MulP   1.9990  1.9990 sum   3.9980
    8    C  MulP   1.9996  1.9996 sum   3.9991
    9    C  MulP   1.9984  1.9984 sum   3.9968
   10    C  MulP   1.9945  1.9945 sum   3.9891
   11    C  MulP   1.9799  1.9799 sum   3.9598
   12    C  MulP   1.9967  1.9967 sum   3.9935
   13    C  MulP   1.9984  1.9984 sum   3.9968
   14    C  MulP   1.9987  1.9987 sum   3.9974
   15    C  MulP   1.9995  1.9995 sum   3.9991
   16    C  MulP   1.9990  1.9990 sum   3.9980
   17    C  MulP   1.9996  1.9996 sum   3.9993
   18    C  MulP   1.9955  1.9955 sum   3.9911
   19    C  MulP   2.0259  2.0259 sum   4.0518
   20    C  MulP   2.0325  2.0325 sum   4.0650
     ..........
     ......

 Sum of MulP: up   =   243.50000 down          =   243.50000
              total=   487.00000 ideal(neutral)=   487.00000
<DFT>  Total Spin Moment (muB) =  0.000000000000
<DFT>  Mixing_weight= 0.030000000000
<DFT>  Uele   = -235.798960059710  dUele     =   0.001009842613
<DFT>  NormRD =    0.000078408008  Criterion =   0.000000010000

******************* MD= 1  SCF=27 *******************
<Poisson>  Poisson's equation using FFT...
<Set_Hamiltonian>  Hamiltonian matrix for VNA+dVH+Vxc...
<Band>  Solving the eigenvalue problem...
 KGrids1:  -0.43750  -0.31250  -0.18750  -0.06250   0.06250   0.18750   0.31250   0.43750 
 KGrids2:  -0.43750  -0.31250  -0.18750  -0.06250   0.06250   0.18750   0.31250   0.43750 
 KGrids3:   0.00000 
<Band_DFT>  Eigen, time=10.850488
<Band_DFT>  DM, time=0.000001
    1    C  MulP   1.9984  1.9984 sum   3.9968
    2    C  MulP   1.9981  1.9981 sum   3.9962
    3    C  MulP   1.9973  1.9973 sum   3.9947
    4    C  MulP   1.9985  1.9985 sum   3.9970
    5    C  MulP   1.9996  1.9996 sum   3.9992
    6    C  MulP   1.9986  1.9986 sum   3.9973
    7    C  MulP   1.9990  1.9990 sum   3.9980
    8    C  MulP   1.9996  1.9996 sum   3.9991
    9    C  MulP   1.9984  1.9984 sum   3.9968
   10    C  MulP   1.9945  1.9945 sum   3.9891
   11    C  MulP   1.9799  1.9799 sum   3.9598
   12    C  MulP   1.9967  1.9967 sum   3.9935
   13    C  MulP   1.9984  1.9984 sum   3.9968
   14    C  MulP   1.9987  1.9987 sum   3.9974
   15    C  MulP   1.9995  1.9995 sum   3.9991
   16    C  MulP   1.9990  1.9990 sum   3.9980
   17    C  MulP   1.9996  1.9996 sum   3.9993
   18    C  MulP   1.9955  1.9955 sum   3.9911
   19    C  MulP   2.0259  2.0259 sum   4.0518
   20    C  MulP   2.0325  2.0325 sum   4.0651
     ..........
     ......

 Sum of MulP: up   =   243.50000 down          =   243.50000
              total=   487.00000 ideal(neutral)=   487.00000
<DFT>  Total Spin Moment (muB) =  0.000000000000
<DFT>  Mixing_weight= 0.030000000000
<DFT>  Uele   = -235.799620431577  dUele     =   0.000660371868
<DFT>  NormRD =    0.000034553773  Criterion =   0.000000010000

******************* MD= 1  SCF=28 *******************
<Poisson>  Poisson's equation using FFT...
<Set_Hamiltonian>  Hamiltonian matrix for VNA+dVH+Vxc...
<Band>  Solving the eigenvalue problem...
 KGrids1:  -0.43750  -0.31250  -0.18750  -0.06250   0.06250   0.18750   0.31250   0.43750 
 KGrids2:  -0.43750  -0.31250  -0.18750  -0.06250   0.06250   0.18750   0.31250   0.43750 
 KGrids3:   0.00000 
<Band_DFT>  Eigen, time=10.829116
<Band_DFT>  DM, time=0.000001
    1    C  MulP   1.9984  1.9984 sum   3.9968
    2    C  MulP   1.9981  1.9981 sum   3.9962
    3    C  MulP   1.9973  1.9973 sum   3.9947
    4    C  MulP   1.9985  1.9985 sum   3.9970
    5    C  MulP   1.9996  1.9996 sum   3.9992
    6    C  MulP   1.9986  1.9986 sum   3.9973
    7    C  MulP   1.9990  1.9990 sum   3.9980
    8    C  MulP   1.9996  1.9996 sum   3.9991
    9    C  MulP   1.9984  1.9984 sum   3.9968
   10    C  MulP   1.9945  1.9945 sum   3.9891
   11    C  MulP   1.9799  1.9799 sum   3.9598
   12    C  MulP   1.9967  1.9967 sum   3.9935
   13    C  MulP   1.9984  1.9984 sum   3.9968
   14    C  MulP   1.9987  1.9987 sum   3.9974
   15    C  MulP   1.9995  1.9995 sum   3.9991
   16    C  MulP   1.9990  1.9990 sum   3.9980
   17    C  MulP   1.9996  1.9996 sum   3.9993
   18    C  MulP   1.9955  1.9955 sum   3.9911
   19    C  MulP   2.0259  2.0259 sum   4.0518
   20    C  MulP   2.0325  2.0325 sum   4.0651
     ..........
     ......

 Sum of MulP: up   =   243.50000 down          =   243.50000
              total=   487.00000 ideal(neutral)=   487.00000
<DFT>  Total Spin Moment (muB) =  0.000000000000
<DFT>  Mixing_weight= 0.030000000000
<DFT>  Uele   = -235.800060313538  dUele     =   0.000439881961
<DFT>  NormRD =    0.000026260813  Criterion =   0.000000010000

******************* MD= 1  SCF=29 *******************
<Poisson>  Poisson's equation using FFT...
<Set_Hamiltonian>  Hamiltonian matrix for VNA+dVH+Vxc...
<Band>  Solving the eigenvalue problem...
 KGrids1:  -0.43750  -0.31250  -0.18750  -0.06250   0.06250   0.18750   0.31250   0.43750 
 KGrids2:  -0.43750  -0.31250  -0.18750  -0.06250   0.06250   0.18750   0.31250   0.43750 
 KGrids3:   0.00000 
<Band_DFT>  Eigen, time=10.830718
<Band_DFT>  DM, time=0.000001
    1    C  MulP   1.9984  1.9984 sum   3.9968
    2    C  MulP   1.9981  1.9981 sum   3.9962
    3    C  MulP   1.9973  1.9973 sum   3.9947
    4    C  MulP   1.9985  1.9985 sum   3.9970
    5    C  MulP   1.9996  1.9996 sum   3.9992
    6    C  MulP   1.9986  1.9986 sum   3.9972
    7    C  MulP   1.9990  1.9990 sum   3.9980
    8    C  MulP   1.9996  1.9996 sum   3.9991
    9    C  MulP   1.9984  1.9984 sum   3.9968
   10    C  MulP   1.9945  1.9945 sum   3.9891
   11    C  MulP   1.9799  1.9799 sum   3.9598
   12    C  MulP   1.9967  1.9967 sum   3.9935
   13    C  MulP   1.9984  1.9984 sum   3.9968
   14    C  MulP   1.9987  1.9987 sum   3.9974
   15    C  MulP   1.9995  1.9995 sum   3.9991
   16    C  MulP   1.9990  1.9990 sum   3.9980
   17    C  MulP   1.9996  1.9996 sum   3.9993
   18    C  MulP   1.9955  1.9955 sum   3.9911
   19    C  MulP   2.0259  2.0259 sum   4.0518
   20    C  MulP   2.0325  2.0325 sum   4.0650
     ..........
     ......

 Sum of MulP: up   =   243.50000 down          =   243.50000
              total=   487.00000 ideal(neutral)=   487.00000
<DFT>  Total Spin Moment (muB) =  0.000000000000
<DFT>  Mixing_weight= 0.030000000000
<DFT>  Uele   = -235.800317145144  dUele     =   0.000256831605
<DFT>  NormRD =    0.000012555896  Criterion =   0.000000010000

******************* MD= 1  SCF=30 *******************
<Poisson>  Poisson's equation using FFT...
<Set_Hamiltonian>  Hamiltonian matrix for VNA+dVH+Vxc...
<Band>  Solving the eigenvalue problem...
 KGrids1:  -0.43750  -0.31250  -0.18750  -0.06250   0.06250   0.18750   0.31250   0.43750 
 KGrids2:  -0.43750  -0.31250  -0.18750  -0.06250   0.06250   0.18750   0.31250   0.43750 
 KGrids3:   0.00000 
<Band_DFT>  Eigen, time=10.830753
<Band_DFT>  DM, time=0.000001
    1    C  MulP   1.9984  1.9984 sum   3.9968
    2    C  MulP   1.9981  1.9981 sum   3.9962
    3    C  MulP   1.9973  1.9973 sum   3.9947
    4    C  MulP   1.9985  1.9985 sum   3.9970
    5    C  MulP   1.9996  1.9996 sum   3.9992
    6    C  MulP   1.9986  1.9986 sum   3.9973
    7    C  MulP   1.9990  1.9990 sum   3.9980
    8    C  MulP   1.9996  1.9996 sum   3.9991
    9    C  MulP   1.9984  1.9984 sum   3.9968
   10    C  MulP   1.9945  1.9945 sum   3.9891
   11    C  MulP   1.9799  1.9799 sum   3.9598
   12    C  MulP   1.9967  1.9967 sum   3.9935
   13    C  MulP   1.9984  1.9984 sum   3.9968
   14    C  MulP   1.9987  1.9987 sum   3.9974
   15    C  MulP   1.9995  1.9995 sum   3.9991
   16    C  MulP   1.9990  1.9990 sum   3.9980
   17    C  MulP   1.9996  1.9996 sum   3.9993
   18    C  MulP   1.9955  1.9955 sum   3.9911
   19    C  MulP   2.0259  2.0259 sum   4.0518
   20    C  MulP   2.0325  2.0325 sum   4.0650
     ..........
     ......

 Sum of MulP: up   =   243.50000 down          =   243.50000
              total=   487.00000 ideal(neutral)=   487.00000
<DFT>  Total Spin Moment (muB) =  0.000000000000
<DFT>  Mixing_weight= 0.030000000000
<DFT>  Uele   = -235.800479171467  dUele     =   0.000162026324
<DFT>  NormRD =    0.000004267484  Criterion =   0.000000010000

******************* MD= 1  SCF=31 *******************
<Poisson>  Poisson's equation using FFT...
<Set_Hamiltonian>  Hamiltonian matrix for VNA+dVH+Vxc...
<Band>  Solving the eigenvalue problem...
 KGrids1:  -0.43750  -0.31250  -0.18750  -0.06250   0.06250   0.18750   0.31250   0.43750 
 KGrids2:  -0.43750  -0.31250  -0.18750  -0.06250   0.06250   0.18750   0.31250   0.43750 
 KGrids3:   0.00000 
<Band_DFT>  Eigen, time=10.837501
<Band_DFT>  DM, time=0.000001
    1    C  MulP   1.9984  1.9984 sum   3.9968
    2    C  MulP   1.9981  1.9981 sum   3.9962
    3    C  MulP   1.9973  1.9973 sum   3.9947
    4    C  MulP   1.9985  1.9985 sum   3.9970
    5    C  MulP   1.9996  1.9996 sum   3.9992
    6    C  MulP   1.9986  1.9986 sum   3.9973
    7    C  MulP   1.9990  1.9990 sum   3.9980
    8    C  MulP   1.9996  1.9996 sum   3.9991
    9    C  MulP   1.9984  1.9984 sum   3.9968
   10    C  MulP   1.9945  1.9945 sum   3.9891
   11    C  MulP   1.9799  1.9799 sum   3.9598
   12    C  MulP   1.9967  1.9967 sum   3.9935
   13    C  MulP   1.9984  1.9984 sum   3.9968
   14    C  MulP   1.9987  1.9987 sum   3.9974
   15    C  MulP   1.9995  1.9995 sum   3.9991
   16    C  MulP   1.9990  1.9990 sum   3.9980
   17    C  MulP   1.9996  1.9996 sum   3.9993
   18    C  MulP   1.9955  1.9955 sum   3.9911
   19    C  MulP   2.0259  2.0259 sum   4.0518
   20    C  MulP   2.0325  2.0325 sum   4.0650
     ..........
     ......

 Sum of MulP: up   =   243.50000 down          =   243.50000
              total=   487.00000 ideal(neutral)=   487.00000
<DFT>  Total Spin Moment (muB) =  0.000000000000
<DFT>  Mixing_weight= 0.030000000000
<DFT>  Uele   = -235.800589848093  dUele     =   0.000110676626
<DFT>  NormRD =    0.000002376743  Criterion =   0.000000010000

******************* MD= 1  SCF=32 *******************
<Poisson>  Poisson's equation using FFT...
<Set_Hamiltonian>  Hamiltonian matrix for VNA+dVH+Vxc...
<Band>  Solving the eigenvalue problem...
 KGrids1:  -0.43750  -0.31250  -0.18750  -0.06250   0.06250   0.18750   0.31250   0.43750 
 KGrids2:  -0.43750  -0.31250  -0.18750  -0.06250   0.06250   0.18750   0.31250   0.43750 
 KGrids3:   0.00000 
<Band_DFT>  Eigen, time=10.830371
<Band_DFT>  DM, time=0.000000
    1    C  MulP   1.9984  1.9984 sum   3.9968
    2    C  MulP   1.9981  1.9981 sum   3.9962
    3    C  MulP   1.9973  1.9973 sum   3.9947
    4    C  MulP   1.9985  1.9985 sum   3.9970
    5    C  MulP   1.9996  1.9996 sum   3.9992
    6    C  MulP   1.9986  1.9986 sum   3.9973
    7    C  MulP   1.9990  1.9990 sum   3.9980
    8    C  MulP   1.9996  1.9996 sum   3.9991
    9    C  MulP   1.9984  1.9984 sum   3.9968
   10    C  MulP   1.9945  1.9945 sum   3.9891
   11    C  MulP   1.9799  1.9799 sum   3.9598
   12    C  MulP   1.9967  1.9967 sum   3.9935
   13    C  MulP   1.9984  1.9984 sum   3.9968
   14    C  MulP   1.9987  1.9987 sum   3.9974
   15    C  MulP   1.9995  1.9995 sum   3.9991
   16    C  MulP   1.9990  1.9990 sum   3.9980
   17    C  MulP   1.9996  1.9996 sum   3.9993
   18    C  MulP   1.9955  1.9955 sum   3.9911
   19    C  MulP   2.0259  2.0259 sum   4.0518
   20    C  MulP   2.0325  2.0325 sum   4.0650
     ..........
     ......

 Sum of MulP: up   =   243.50000 down          =   243.50000
              total=   487.00000 ideal(neutral)=   487.00000
<DFT>  Total Spin Moment (muB) =  0.000000000000
<DFT>  Mixing_weight= 0.030000000000
<DFT>  Uele   = -235.800631696226  dUele     =   0.000041848133
<DFT>  NormRD =    0.000001270404  Criterion =   0.000000010000

******************* MD= 1  SCF=33 *******************
<Poisson>  Poisson's equation using FFT...
<Set_Hamiltonian>  Hamiltonian matrix for VNA+dVH+Vxc...
<Band>  Solving the eigenvalue problem...
 KGrids1:  -0.43750  -0.31250  -0.18750  -0.06250   0.06250   0.18750   0.31250   0.43750 
 KGrids2:  -0.43750  -0.31250  -0.18750  -0.06250   0.06250   0.18750   0.31250   0.43750 
 KGrids3:   0.00000 
<Band_DFT>  Eigen, time=10.833315
<Band_DFT>  DM, time=0.000001
    1    C  MulP   1.9984  1.9984 sum   3.9968
    2    C  MulP   1.9981  1.9981 sum   3.9962
    3    C  MulP   1.9973  1.9973 sum   3.9947
    4    C  MulP   1.9985  1.9985 sum   3.9970
    5    C  MulP   1.9996  1.9996 sum   3.9992
    6    C  MulP   1.9986  1.9986 sum   3.9973
    7    C  MulP   1.9990  1.9990 sum   3.9980
    8    C  MulP   1.9996  1.9996 sum   3.9991
    9    C  MulP   1.9984  1.9984 sum   3.9968
   10    C  MulP   1.9945  1.9945 sum   3.9891
   11    C  MulP   1.9799  1.9799 sum   3.9598
   12    C  MulP   1.9967  1.9967 sum   3.9935
   13    C  MulP   1.9984  1.9984 sum   3.9968
   14    C  MulP   1.9987  1.9987 sum   3.9974
   15    C  MulP   1.9995  1.9995 sum   3.9991
   16    C  MulP   1.9990  1.9990 sum   3.9980
   17    C  MulP   1.9996  1.9996 sum   3.9993
   18    C  MulP   1.9955  1.9955 sum   3.9911
   19    C  MulP   2.0259  2.0259 sum   4.0518
   20    C  MulP   2.0325  2.0325 sum   4.0650
     ..........
     ......

 Sum of MulP: up   =   243.50000 down          =   243.50000
              total=   487.00000 ideal(neutral)=   487.00000
<DFT>  Total Spin Moment (muB) =  0.000000000000
<DFT>  Mixing_weight= 0.030000000000
<DFT>  Uele   = -235.800651089539  dUele     =   0.000019393313
<DFT>  NormRD =    0.000000773923  Criterion =   0.000000010000

******************* MD= 1  SCF=34 *******************
<Poisson>  Poisson's equation using FFT...
<Set_Hamiltonian>  Hamiltonian matrix for VNA+dVH+Vxc...
<Band>  Solving the eigenvalue problem...
 KGrids1:  -0.43750  -0.31250  -0.18750  -0.06250   0.06250   0.18750   0.31250   0.43750 
 KGrids2:  -0.43750  -0.31250  -0.18750  -0.06250   0.06250   0.18750   0.31250   0.43750 
 KGrids3:   0.00000 
<Band_DFT>  Eigen, time=10.842583
<Band_DFT>  DM, time=0.000000
    1    C  MulP   1.9984  1.9984 sum   3.9968
    2    C  MulP   1.9981  1.9981 sum   3.9962
    3    C  MulP   1.9973  1.9973 sum   3.9947
    4    C  MulP   1.9985  1.9985 sum   3.9970
    5    C  MulP   1.9996  1.9996 sum   3.9992
    6    C  MulP   1.9986  1.9986 sum   3.9973
    7    C  MulP   1.9990  1.9990 sum   3.9980
    8    C  MulP   1.9996  1.9996 sum   3.9991
    9    C  MulP   1.9984  1.9984 sum   3.9968
   10    C  MulP   1.9945  1.9945 sum   3.9891
   11    C  MulP   1.9799  1.9799 sum   3.9598
   12    C  MulP   1.9967  1.9967 sum   3.9935
   13    C  MulP   1.9984  1.9984 sum   3.9968
   14    C  MulP   1.9987  1.9987 sum   3.9974
   15    C  MulP   1.9995  1.9995 sum   3.9991
   16    C  MulP   1.9990  1.9990 sum   3.9980
   17    C  MulP   1.9996  1.9996 sum   3.9993
   18    C  MulP   1.9955  1.9955 sum   3.9911
   19    C  MulP   2.0259  2.0259 sum   4.0518
   20    C  MulP   2.0325  2.0325 sum   4.0650
     ..........
     ......

 Sum of MulP: up   =   243.50000 down          =   243.50000
              total=   487.00000 ideal(neutral)=   487.00000
<DFT>  Total Spin Moment (muB) =  0.000000000000
<DFT>  Mixing_weight= 0.030000000000
<DFT>  Uele   = -235.800662222363  dUele     =   0.000011132823
<DFT>  NormRD =    0.000000436944  Criterion =   0.000000010000

******************* MD= 1  SCF=35 *******************
<Poisson>  Poisson's equation using FFT...
<Set_Hamiltonian>  Hamiltonian matrix for VNA+dVH+Vxc...
<Band>  Solving the eigenvalue problem...
 KGrids1:  -0.43750  -0.31250  -0.18750  -0.06250   0.06250   0.18750   0.31250   0.43750 
 KGrids2:  -0.43750  -0.31250  -0.18750  -0.06250   0.06250   0.18750   0.31250   0.43750 
 KGrids3:   0.00000 
<Band_DFT>  Eigen, time=10.835874
<Band_DFT>  DM, time=0.000001
    1    C  MulP   1.9984  1.9984 sum   3.9968
    2    C  MulP   1.9981  1.9981 sum   3.9962
    3    C  MulP   1.9973  1.9973 sum   3.9947
    4    C  MulP   1.9985  1.9985 sum   3.9970
    5    C  MulP   1.9996  1.9996 sum   3.9992
    6    C  MulP   1.9986  1.9986 sum   3.9973
    7    C  MulP   1.9990  1.9990 sum   3.9980
    8    C  MulP   1.9996  1.9996 sum   3.9991
    9    C  MulP   1.9984  1.9984 sum   3.9968
   10    C  MulP   1.9945  1.9945 sum   3.9891
   11    C  MulP   1.9799  1.9799 sum   3.9598
   12    C  MulP   1.9967  1.9967 sum   3.9935
   13    C  MulP   1.9984  1.9984 sum   3.9968
   14    C  MulP   1.9987  1.9987 sum   3.9974
   15    C  MulP   1.9995  1.9995 sum   3.9991
   16    C  MulP   1.9990  1.9990 sum   3.9980
   17    C  MulP   1.9996  1.9996 sum   3.9993
   18    C  MulP   1.9955  1.9955 sum   3.9911
   19    C  MulP   2.0259  2.0259 sum   4.0518
   20    C  MulP   2.0325  2.0325 sum   4.0650
     ..........
     ......

 Sum of MulP: up   =   243.50000 down          =   243.50000
              total=   487.00000 ideal(neutral)=   487.00000
<DFT>  Total Spin Moment (muB) =  0.000000000000
<DFT>  Mixing_weight= 0.030000000000
<DFT>  Uele   = -235.800670168908  dUele     =   0.000007946545
<DFT>  NormRD =    0.000000250287  Criterion =   0.000000010000

******************* MD= 1  SCF=36 *******************
<Poisson>  Poisson's equation using FFT...
<Set_Hamiltonian>  Hamiltonian matrix for VNA+dVH+Vxc...
<Band>  Solving the eigenvalue problem...
 KGrids1:  -0.43750  -0.31250  -0.18750  -0.06250   0.06250   0.18750   0.31250   0.43750 
 KGrids2:  -0.43750  -0.31250  -0.18750  -0.06250   0.06250   0.18750   0.31250   0.43750 
 KGrids3:   0.00000 
<Band_DFT>  Eigen, time=10.808231
<Band_DFT>  DM, time=0.000001
    1    C  MulP   1.9984  1.9984 sum   3.9968
    2    C  MulP   1.9981  1.9981 sum   3.9962
    3    C  MulP   1.9973  1.9973 sum   3.9947
    4    C  MulP   1.9985  1.9985 sum   3.9970
    5    C  MulP   1.9996  1.9996 sum   3.9992
    6    C  MulP   1.9986  1.9986 sum   3.9973
    7    C  MulP   1.9990  1.9990 sum   3.9980
    8    C  MulP   1.9996  1.9996 sum   3.9991
    9    C  MulP   1.9984  1.9984 sum   3.9968
   10    C  MulP   1.9945  1.9945 sum   3.9891
   11    C  MulP   1.9799  1.9799 sum   3.9598
   12    C  MulP   1.9967  1.9967 sum   3.9935
   13    C  MulP   1.9984  1.9984 sum   3.9968
   14    C  MulP   1.9987  1.9987 sum   3.9974
   15    C  MulP   1.9995  1.9995 sum   3.9991
   16    C  MulP   1.9990  1.9990 sum   3.9980
   17    C  MulP   1.9996  1.9996 sum   3.9993
   18    C  MulP   1.9955  1.9955 sum   3.9911
   19    C  MulP   2.0259  2.0259 sum   4.0518
   20    C  MulP   2.0325  2.0325 sum   4.0650
     ..........
     ......

 Sum of MulP: up   =   243.50000 down          =   243.50000
              total=   487.00000 ideal(neutral)=   487.00000
<DFT>  Total Spin Moment (muB) =  0.000000000000
<DFT>  Mixing_weight= 0.030000000000
<DFT>  Uele   = -235.800676513532  dUele     =   0.000006344624
<DFT>  NormRD =    0.000000133498  Criterion =   0.000000010000

******************* MD= 1  SCF=37 *******************
<Poisson>  Poisson's equation using FFT...
<Set_Hamiltonian>  Hamiltonian matrix for VNA+dVH+Vxc...
<Band>  Solving the eigenvalue problem...
 KGrids1:  -0.43750  -0.31250  -0.18750  -0.06250   0.06250   0.18750   0.31250   0.43750 
 KGrids2:  -0.43750  -0.31250  -0.18750  -0.06250   0.06250   0.18750   0.31250   0.43750 
 KGrids3:   0.00000 
<Band_DFT>  Eigen, time=10.837019
<Band_DFT>  DM, time=0.000001
    1    C  MulP   1.9984  1.9984 sum   3.9968
    2    C  MulP   1.9981  1.9981 sum   3.9962
    3    C  MulP   1.9973  1.9973 sum   3.9947
    4    C  MulP   1.9985  1.9985 sum   3.9970
    5    C  MulP   1.9996  1.9996 sum   3.9992
    6    C  MulP   1.9986  1.9986 sum   3.9973
    7    C  MulP   1.9990  1.9990 sum   3.9980
    8    C  MulP   1.9996  1.9996 sum   3.9991
    9    C  MulP   1.9984  1.9984 sum   3.9968
   10    C  MulP   1.9945  1.9945 sum   3.9891
   11    C  MulP   1.9799  1.9799 sum   3.9598
   12    C  MulP   1.9967  1.9967 sum   3.9935
   13    C  MulP   1.9984  1.9984 sum   3.9968
   14    C  MulP   1.9987  1.9987 sum   3.9974
   15    C  MulP   1.9995  1.9995 sum   3.9991
   16    C  MulP   1.9990  1.9990 sum   3.9980
   17    C  MulP   1.9996  1.9996 sum   3.9993
   18    C  MulP   1.9955  1.9955 sum   3.9911
   19    C  MulP   2.0259  2.0259 sum   4.0518
   20    C  MulP   2.0325  2.0325 sum   4.0650
     ..........
     ......

 Sum of MulP: up   =   243.50000 down          =   243.50000
              total=   487.00000 ideal(neutral)=   487.00000
<DFT>  Total Spin Moment (muB) =  0.000000000000
<DFT>  Mixing_weight= 0.030000000000
<DFT>  Uele   = -235.800681115783  dUele     =   0.000004602252
<DFT>  NormRD =    0.000000054992  Criterion =   0.000000010000

******************* MD= 1  SCF=38 *******************
<Poisson>  Poisson's equation using FFT...
<Set_Hamiltonian>  Hamiltonian matrix for VNA+dVH+Vxc...
<Band>  Solving the eigenvalue problem...
 KGrids1:  -0.43750  -0.31250  -0.18750  -0.06250   0.06250   0.18750   0.31250   0.43750 
 KGrids2:  -0.43750  -0.31250  -0.18750  -0.06250   0.06250   0.18750   0.31250   0.43750 
 KGrids3:   0.00000 
<Band_DFT>  Eigen, time=10.833426
<Band_DFT>  DM, time=0.000000
    1    C  MulP   1.9984  1.9984 sum   3.9968
    2    C  MulP   1.9981  1.9981 sum   3.9962
    3    C  MulP   1.9973  1.9973 sum   3.9947
    4    C  MulP   1.9985  1.9985 sum   3.9970
    5    C  MulP   1.9996  1.9996 sum   3.9992
    6    C  MulP   1.9986  1.9986 sum   3.9973
    7    C  MulP   1.9990  1.9990 sum   3.9980
    8    C  MulP   1.9996  1.9996 sum   3.9991
    9    C  MulP   1.9984  1.9984 sum   3.9968
   10    C  MulP   1.9945  1.9945 sum   3.9891
   11    C  MulP   1.9799  1.9799 sum   3.9598
   12    C  MulP   1.9967  1.9967 sum   3.9935
   13    C  MulP   1.9984  1.9984 sum   3.9968
   14    C  MulP   1.9987  1.9987 sum   3.9974
[...]
    7    C  MulP   1.9990  1.9990 sum   3.9980
    8    C  MulP   1.9995  1.9995 sum   3.9990
    9    C  MulP   1.9984  1.9984 sum   3.9968
   10    C  MulP   1.9945  1.9945 sum   3.9891
   11    C  MulP   1.9798  1.9798 sum   3.9596
   12    C  MulP   1.9965  1.9965 sum   3.9930
   13    C  MulP   1.9983  1.9983 sum   3.9967
   14    C  MulP   1.9987  1.9987 sum   3.9973
   15    C  MulP   1.9995  1.9995 sum   3.9989
   16    C  MulP   1.9990  1.9990 sum   3.9980
   17    C  MulP   1.9996  1.9996 sum   3.9992
   18    C  MulP   1.9954  1.9954 sum   3.9909
   19    C  MulP   2.0256  2.0256 sum   4.0512
   20    C  MulP   2.0317  2.0317 sum   4.0634
     ..........
     ......

 Sum of MulP: up   =   243.50000 down          =   243.50000
              total=   487.00000 ideal(neutral)=   487.00000
<DFT>  Total Spin Moment (muB) =  0.000000000000
<DFT>  Mixing_weight= 0.030000000000
<DFT>  Uele   = -235.869226017179  dUele     =   0.000000040294
<DFT>  NormRD =    0.000000123177  Criterion =   0.000000010000

******************* MD=39  SCF=17 *******************
<Poisson>  Poisson's equation using FFT...
<Set_Hamiltonian>  Hamiltonian matrix for VNA+dVH+Vxc...
<Band>  Solving the eigenvalue problem...
 KGrids1:  -0.43750  -0.31250  -0.18750  -0.06250   0.06250   0.18750   0.31250   0.43750 
 KGrids2:  -0.43750  -0.31250  -0.18750  -0.06250   0.06250   0.18750   0.31250   0.43750 
 KGrids3:   0.00000 
<Band_DFT>  Eigen, time=10.875632
<Band_DFT>  DM, time=0.000000
    1    C  MulP   1.9984  1.9984 sum   3.9968
    2    C  MulP   1.9980  1.9980 sum   3.9961
    3    C  MulP   1.9973  1.9973 sum   3.9946
    4    C  MulP   1.9985  1.9985 sum   3.9969
    5    C  MulP   1.9996  1.9996 sum   3.9992
    6    C  MulP   1.9986  1.9986 sum   3.9972
    7    C  MulP   1.9990  1.9990 sum   3.9980
    8    C  MulP   1.9995  1.9995 sum   3.9990
    9    C  MulP   1.9984  1.9984 sum   3.9968
   10    C  MulP   1.9945  1.9945 sum   3.9891
   11    C  MulP   1.9798  1.9798 sum   3.9596
   12    C  MulP   1.9965  1.9965 sum   3.9930
   13    C  MulP   1.9983  1.9983 sum   3.9967
   14    C  MulP   1.9987  1.9987 sum   3.9973
   15    C  MulP   1.9995  1.9995 sum   3.9989
   16    C  MulP   1.9990  1.9990 sum   3.9980
   17    C  MulP   1.9996  1.9996 sum   3.9992
   18    C  MulP   1.9954  1.9954 sum   3.9909
   19    C  MulP   2.0256  2.0256 sum   4.0512
   20    C  MulP   2.0317  2.0317 sum   4.0634
     ..........
     ......

 Sum of MulP: up   =   243.50000 down          =   243.50000
              total=   487.00000 ideal(neutral)=   487.00000
<DFT>  Total Spin Moment (muB) =  0.000000000000
<DFT>  Mixing_weight= 0.030000000000
<DFT>  Uele   = -235.869226024072  dUele     =   0.000000006892
<DFT>  NormRD =    0.000000047298  Criterion =   0.000000010000
<MD=39>  Force calculation
  Force calculation #1
  Force calculation #2
  Force calculation #3
  Force calculation #4
  Force calculation #5
<MD=39>  Total Energy
  Force calculation #6
  Force calculation #7

*******************************************************
                  Dipole moment (Debye)                 
*******************************************************

 Absolute D      304.82505489

                      Dx                Dy                Dz
 Total            263.93428164     -152.50244775       -0.11178628
 Core           11263.02229396    20153.80280370    24949.87350036
 Electron      -10999.08801232   -20306.30525146   -24949.98528665
 Back ground       -0.00000000       -0.00000000       -0.00000000

*******************************************************
                Total Energy (Hartree) at MD =39        
*******************************************************

  Uele  =    -235.869226024072

  Ukin  =     518.625638595118
  UH0   =   -6514.951047775556
  UH1   =       1.941248229115
  Una   =    -381.760873514885
  Unl   =     -51.695311138412
  Uxc0  =    -118.536186028626
  Uxc1  =    -118.536186028626
  Ucore =    5932.838175472124
  Uhub  =       0.000000000000
  Ucs   =       0.000000000000
  Uzs   =       0.000000000000
  Uzo   =       0.000000000000
  Uef   =       0.000000000000
  UvdW  =       0.000000000000
  Uch   =       0.000000000000
  Utot  =    -732.074542189747

  UpV   =       0.000000000000
  Enpy  =    -732.074542189747
  Note:

  Uele:   band energy
  Ukin:   kinetic energy
  UH0:    electric part of screened Coulomb energy
  UH1:    difference electron-electron Coulomb energy
  Una:    neutral atom potential energy
  Unl:    non-local potential energy
  Uxc0:   exchange-correlation energy for alpha spin
  Uxc1:   exchange-correlation energy for beta spin
  Ucore:  core-core Coulomb energy
  Uhub:   LDA+U energy
  Ucs:    constraint energy for spin orientation
  Uzs:    Zeeman term for spin magnetic moment
  Uzo:    Zeeman term for orbital magnetic moment
  Uef:    electric energy by electric field
  UvdW:   semi-empirical vdW energy 
  Uch:    penalty term to create a core hole
  UpV:    pressure times volume
  Enpy:   Enthalpy = Utot + UpV
  (see also PRB 72, 045121(2005) for the energy contributions)


*******************************************************
           Computational times (s) at MD =39            
*******************************************************

  DFT in total      =  224.86557

  Set_OLP_Kin       =    0.58956
  Set_Nonlocal      =    2.18501
  Set_ProExpn_VNA   =    3.66876
  Set_Hamiltonian   =   12.26946
  Poisson           =    0.20043
  diagonalization   =  193.90735
  Mixing_DM         =    1.75203
  Force             =    3.06124
  Total_Energy      =    0.90288
  Set_Aden_Grid     =    0.25959
  Set_Orbitals_Grid =    0.29615
  Set_Density_Grid  =    4.95664
  RestartFileDFT    =    0.31192
  Mulliken_Charge   =    0.01197
  FFT(2D)_Density   =    0.21673

The SCF was achieved at MD=  39

*******************************************************
             MD or geometry opt. at MD =39              
*******************************************************


The geometry optimization was achieved.
<RF>  |Maximum force| (Hartree/Bohr) = 0.000092446266
<RF>  Criterion       (Hartree/Bohr) = 0.000100000000

     atom=   1, XYZ(ang) Fxyz(a.u.)=   0.0734    1.3921   10.4045     0.0000   -0.0000    0.0000
     atom=   2, XYZ(ang) Fxyz(a.u.)=  -1.1514    3.5270   10.3983     0.0000   -0.0000   -0.0000
     atom=   3, XYZ(ang) Fxyz(a.u.)=  -2.3846    5.6640   10.4085     0.0000   -0.0000    0.0000
     atom=   4, XYZ(ang) Fxyz(a.u.)=  -3.6162    7.7951   10.4503     0.0000   -0.0000    0.0000
     atom=   5, XYZ(ang) Fxyz(a.u.)=  -4.8657    9.9338   10.4692    -0.0000   -0.0000   -0.0000
     atom=   6, XYZ(ang) Fxyz(a.u.)=  -6.1096   12.0655   10.4462     0.0000   -0.0000   -0.0000
     atom=   7, XYZ(ang) Fxyz(a.u.)=  -7.3442   14.2044   10.4295     0.0000   -0.0000   -0.0000
     atom=   8, XYZ(ang) Fxyz(a.u.)=  -8.5719   16.3446   10.4160    -0.0000    0.0000   -0.0000
     atom=   9, XYZ(ang) Fxyz(a.u.)=   2.5415    1.4044   10.4249     0.0000   -0.0000   -0.0000
     atom=  10, XYZ(ang) Fxyz(a.u.)=   1.3202    3.5482   10.4169     0.0000   -0.0000   -0.0000
     atom=  11, XYZ(ang) Fxyz(a.u.)=   0.0932    5.6653   10.4179     0.0000    0.0000   -0.0000
     atom=  12, XYZ(ang) Fxyz(a.u.)=  -1.1274    7.7979   10.4576     0.0000    0.0000    0.0000
     atom=  13, XYZ(ang) Fxyz(a.u.)=  -2.3801    9.9275   10.5512     0.0000   -0.0000   -0.0000
     atom=  14, XYZ(ang) Fxyz(a.u.)=  -3.6319   12.0707   10.4929    -0.0000   -0.0000   -0.0001
     atom=  15, XYZ(ang) Fxyz(a.u.)=  -4.8740   14.2096   10.4546     0.0000   -0.0000   -0.0000
     atom=  16, XYZ(ang) Fxyz(a.u.)=  -6.1046   16.3514   10.4349     0.0000   -0.0000   -0.0000
     atom=  17, XYZ(ang) Fxyz(a.u.)=   5.0004    1.4123   10.4448     0.0000   -0.0000    0.0000
     atom=  18, XYZ(ang) Fxyz(a.u.)=   3.7817    3.5764   10.4387     0.0000   -0.0000    0.0000
     atom=  19, XYZ(ang) Fxyz(a.u.)=   2.5893    5.6720   10.4374     0.0000    0.0000   -0.0000
     atom=  20, XYZ(ang) Fxyz(a.u.)=   1.3389    7.8243   10.4832     0.0000   -0.0000   -0.0000
     atom=  21, XYZ(ang) Fxyz(a.u.)=   0.1260    9.8913   10.6345    -0.0000    0.0000   -0.0001
     atom=  22, XYZ(ang) Fxyz(a.u.)=  -1.1756   12.0743   10.6520     0.0000   -0.0000   -0.0000
     atom=  23, XYZ(ang) Fxyz(a.u.)=  -2.4007   14.2036   10.4998     0.0000    0.0000   -0.0000
     atom=  24, XYZ(ang) Fxyz(a.u.)=  -3.6350   16.3518   10.4583     0.0000   -0.0000   -0.0000
     atom=  25, XYZ(ang) Fxyz(a.u.)=   7.4631    1.4007   10.4596     0.0000   -0.0000    0.0000
     atom=  26, XYZ(ang) Fxyz(a.u.)=   6.2239    3.5735   10.4545     0.0000    0.0000    0.0000
     atom=  27, XYZ(ang) Fxyz(a.u.)=   1.3657   12.0390   10.6354    -0.0000   -0.0000   -0.0000
     atom=  28, XYZ(ang) Fxyz(a.u.)=   0.0813   14.1910   10.5601     0.0000    0.0000    0.0000
     atom=  29, XYZ(ang) Fxyz(a.u.)=  -1.1669   16.3406   10.4850     0.0000    0.0000    0.0000
     atom=  30, XYZ(ang) Fxyz(a.u.)=   9.9344    1.3898   10.4555     0.0000   -0.0000   -0.0000
     atom=  31, XYZ(ang) Fxyz(a.u.)=   8.6866    3.5466   10.4504     0.0000   -0.0000   -0.0000
     atom=  32, XYZ(ang) Fxyz(a.u.)=   7.4175    5.6656   10.4475     0.0000   -0.0000    0.0000
     atom=  33, XYZ(ang) Fxyz(a.u.)=   3.7625   12.0223   10.4795     0.0000    0.0000   -0.0000
     atom=  34, XYZ(ang) Fxyz(a.u.)=   2.5518   14.1714   10.4610     0.0000   -0.0000   -0.0000
     atom=  35, XYZ(ang) Fxyz(a.u.)=   1.3100   16.3279   10.4615     0.0000    0.0000    0.0000
     atom=  36, XYZ(ang) Fxyz(a.u.)=  12.4041    1.3794   10.4227     0.0000   -0.0000    0.0000
     atom=  37, XYZ(ang) Fxyz(a.u.)=  11.1628    3.5255   10.4334     0.0000   -0.0000   -0.0000
     atom=  38, XYZ(ang) Fxyz(a.u.)=   9.9184    5.6690   10.4412     0.0000   -0.0000   -0.0000
     atom=  39, XYZ(ang) Fxyz(a.u.)=   8.6711    7.8362   10.4418     0.0000   -0.0000    0.0000
     atom=  40, XYZ(ang) Fxyz(a.u.)=   6.2503   12.0159   10.4297    -0.0000   -0.0000   -0.0000
     atom=  41, XYZ(ang) Fxyz(a.u.)=   5.0088   14.1809   10.4145     0.0000   -0.0000   -0.0000
     atom=  42, XYZ(ang) Fxyz(a.u.)=   3.7713   16.3271   10.4115     0.0000   -0.0000    0.0000
     atom=  43, XYZ(ang) Fxyz(a.u.)=  14.8752    1.3790   10.3981     0.0000   -0.0000    0.0000
     atom=  44, XYZ(ang) Fxyz(a.u.)=  13.6372    3.5224   10.4108    -0.0000   -0.0000    0.0000
     atom=  45, XYZ(ang) Fxyz(a.u.)=  12.3972    5.6635   10.4275     0.0000    0.0000   -0.0000
     atom=  46, XYZ(ang) Fxyz(a.u.)=  11.1408    7.7972   10.4383     0.0000   -0.0000   -0.0000
     atom=  47, XYZ(ang) Fxyz(a.u.)=   9.8859    9.9166   10.4409     0.0000   -0.0000    0.0000
     atom=  48, XYZ(ang) Fxyz(a.u.)=   8.6621   12.0304   10.4279     0.0000   -0.0000    0.0000
     atom=  49, XYZ(ang) Fxyz(a.u.)=   7.4559   14.1765   10.4103     0.0000   -0.0000   -0.0000
     atom=  50, XYZ(ang) Fxyz(a.u.)=   6.2387   16.3277   10.3960     0.0000    0.0000    0.0000
     atom=  51, XYZ(ang) Fxyz(a.u.)=  17.3425    1.3832   10.3930     0.0000   -0.0000   -0.0000
     atom=  52, XYZ(ang) Fxyz(a.u.)=  16.1126    3.5219   10.3971     0.0000   -0.0000    0.0000
     atom=  53, XYZ(ang) Fxyz(a.u.)=  14.8767    5.6617   10.4156     0.0000   -0.0000   -0.0000
     atom=  54, XYZ(ang) Fxyz(a.u.)=  13.6326    7.7952   10.4406     0.0000    0.0000   -0.0000
     atom=  55, XYZ(ang) Fxyz(a.u.)=  12.3874    9.9299   10.4425     0.0000   -0.0000    0.0000
     atom=  56, XYZ(ang) Fxyz(a.u.)=  11.1457   12.0567   10.4318     0.0000   -0.0000   -0.0000
     atom=  57, XYZ(ang) Fxyz(a.u.)=   9.9233   14.1904   10.4174     0.0000    0.0000   -0.0000
     atom=  58, XYZ(ang) Fxyz(a.u.)=   8.7000   16.3342   10.4017     0.0000   -0.0000    0.0000
     atom=  59, XYZ(ang) Fxyz(a.u.)=   1.3060    0.6810   10.4142     0.0000   -0.0000    0.0000
     atom=  60, XYZ(ang) Fxyz(a.u.)=   0.0816    2.8235   10.4052     0.0000   -0.0000    0.0000
     atom=  61, XYZ(ang) Fxyz(a.u.)=  -1.1402    4.9563   10.4042    -0.0000   -0.0000    0.0000
     atom=  62, XYZ(ang) Fxyz(a.u.)=  -2.3761    7.0881   10.4308     0.0000   -0.0000   -0.0000
     atom=  63, XYZ(ang) Fxyz(a.u.)=  -3.6119    9.2261   10.4892     0.0000   -0.0000   -0.0000
     atom=  64, XYZ(ang) Fxyz(a.u.)=  -4.8691   11.3570   10.4658     0.0000    0.0000    0.0000
     atom=  65, XYZ(ang) Fxyz(a.u.)=  -6.1073   13.4943   10.4421     0.0000   -0.0000    0.0000
     atom=  66, XYZ(ang) Fxyz(a.u.)=  -7.3380   15.6323   10.4266     0.0000   -0.0000    0.0001
     atom=  67, XYZ(ang) Fxyz(a.u.)=   3.7680    0.6884   10.4346     0.0000   -0.0000    0.0000
     atom=  68, XYZ(ang) Fxyz(a.u.)=   2.5503    2.8407   10.4275     0.0000   -0.0000    0.0000
     atom=  69, XYZ(ang) Fxyz(a.u.)=   1.3381    4.9818   10.4206     0.0000    0.0000    0.0001
     atom=  70, XYZ(ang) Fxyz(a.u.)=   0.1260    7.0984   10.4487     0.0000   -0.0000   -0.0000
     atom=  71, XYZ(ang) Fxyz(a.u.)=  -1.1234    9.2143   10.5414     0.0000   -0.0000    0.0000
     atom=  72, XYZ(ang) Fxyz(a.u.)=  -2.3871   11.3627   10.5665     0.0000    0.0000    0.0000
     atom=  73, XYZ(ang) Fxyz(a.u.)=  -3.6338   13.4938   10.4828    -0.0000    0.0000   -0.0000
     atom=  74, XYZ(ang) Fxyz(a.u.)=  -4.8711   15.6355   10.4484     0.0000   -0.0000    0.0000
     atom=  75, XYZ(ang) Fxyz(a.u.)=   6.2343    0.6870   10.4550     0.0000    0.0000    0.0000
     atom=  76, XYZ(ang) Fxyz(a.u.)=   5.0010    2.8369   10.4455     0.0000    0.0000   -0.0000
     atom=  77, XYZ(ang) Fxyz(a.u.)=   3.7503    5.0058   10.4452     0.0000    0.0000    0.0000
     atom=  78, XYZ(ang) Fxyz(a.u.)=   1.3311    9.1794   10.5467     0.0000    0.0000    0.0000
     atom=  79, XYZ(ang) Fxyz(a.u.)=   0.0937   11.3412   11.0335     0.0000   -0.0000   -0.0001
     atom=  80, XYZ(ang) Fxyz(a.u.)=  -1.1651   13.4797   10.5729     0.0000    0.0000   -0.0000
     atom=  81, XYZ(ang) Fxyz(a.u.)=  -2.4010   15.6322   10.4785     0.0000   -0.0000   -0.0000
     atom=  82, XYZ(ang) Fxyz(a.u.)=   8.6975    0.6749   10.4669     0.0000   -0.0000    0.0000
     atom=  83, XYZ(ang) Fxyz(a.u.)=   7.4564    2.8381   10.4561     0.0000    0.0000    0.0000
     atom=  84, XYZ(ang) Fxyz(a.u.)=   6.2583    4.9989   10.4543     0.0000    0.0000    0.0000
     atom=  85, XYZ(ang) Fxyz(a.u.)=   2.5850   11.3519   10.5456     0.0000   -0.0000    0.0000
     atom=  86, XYZ(ang) Fxyz(a.u.)=   1.3274   13.4596   10.5464     0.0000    0.0000    0.0000
     atom=  87, XYZ(ang) Fxyz(a.u.)=   0.0730   15.6088   10.5031     0.0000   -0.0000   -0.0001
     atom=  88, XYZ(ang) Fxyz(a.u.)=  11.1712    0.6652   10.4453     0.0000   -0.0000   -0.0000
     atom=  89, XYZ(ang) Fxyz(a.u.)=   9.9273    2.8184   10.4467     0.0000   -0.0000    0.0000
     atom=  90, XYZ(ang) Fxyz(a.u.)=   8.6689    4.9799   10.4461     0.0000   -0.0000   -0.0000
     atom=  91, XYZ(ang) Fxyz(a.u.)=   3.7844   13.4358   10.4480     0.0000   -0.0000   -0.0000
     atom=  92, XYZ(ang) Fxyz(a.u.)=   2.5424   15.6078   10.4376     0.0000   -0.0000   -0.0000
     atom=  93, XYZ(ang) Fxyz(a.u.)=  13.6388    0.6610   10.4088     0.0000    0.0000    0.0000
     atom=  94, XYZ(ang) Fxyz(a.u.)=  12.4001    2.8093   10.4211     0.0000    0.0000    0.0000
     atom=  95, XYZ(ang) Fxyz(a.u.)=  11.1543    4.9558   10.4334     0.0000    0.0000   -0.0000
     atom=  96, XYZ(ang) Fxyz(a.u.)=   9.8909    7.0959   10.4398    -0.0000   -0.0000    0.0000
     atom=  97, XYZ(ang) Fxyz(a.u.)=   8.6693    9.1734   10.4448     0.0000   -0.0000    0.0000
     atom=  98, XYZ(ang) Fxyz(a.u.)=   7.4080   11.3442   10.4356     0.0000   -0.0000    0.0000
     atom=  99, XYZ(ang) Fxyz(a.u.)=   6.2233   13.4447   10.4145    -0.0000    0.0000    0.0000
     atom= 100, XYZ(ang) Fxyz(a.u.)=   5.0065   15.6036   10.4032     0.0000    0.0000   -0.0000
     atom= 101, XYZ(ang) Fxyz(a.u.)=  16.1086    0.6649   10.3933     0.0000   -0.0000    0.0000
     atom= 102, XYZ(ang) Fxyz(a.u.)=  14.8758    2.8075   10.4001     0.0000   -0.0000    0.0000
     atom= 103, XYZ(ang) Fxyz(a.u.)=  13.6363    4.9504   10.4164     0.0000    0.0000   -0.0000
     atom= 104, XYZ(ang) Fxyz(a.u.)=  12.3920    7.0872   10.4347     0.0000   -0.0000    0.0000
     atom= 105, XYZ(ang) Fxyz(a.u.)=  11.1393    9.2171   10.4407     0.0000   -0.0000    0.0000
     atom= 106, XYZ(ang) Fxyz(a.u.)=   9.9121   11.3441   10.4326    -0.0000   -0.0000    0.0000
     atom= 107, XYZ(ang) Fxyz(a.u.)=   8.6838   13.4649   10.4190     0.0000    0.0000    0.0000
     atom= 108, XYZ(ang) Fxyz(a.u.)=   7.4645   15.6116   10.4010     0.0000    0.0000    0.0000
     atom= 109, XYZ(ang) Fxyz(a.u.)=  18.5767    0.6707   10.3979     0.0000   -0.0000    0.0000
     atom= 110, XYZ(ang) Fxyz(a.u.)=  17.3479    2.8111   10.3939     0.0000   -0.0000    0.0000
     atom= 111, XYZ(ang) Fxyz(a.u.)=  16.1165    4.9518   10.4049     0.0000   -0.0000    0.0000
     atom= 112, XYZ(ang) Fxyz(a.u.)=  14.8787    7.0867   10.4333     0.0000    0.0000    0.0000
     atom= 113, XYZ(ang) Fxyz(a.u.)=  13.6334    9.2240   10.4494     0.0000    0.0000    0.0000
     atom= 114, XYZ(ang) Fxyz(a.u.)=  12.3911   11.3511   10.4399     0.0000    0.0000    0.0000
     atom= 115, XYZ(ang) Fxyz(a.u.)=  11.1566   13.4862   10.4256     0.0000    0.0000    0.0001
     atom= 116, XYZ(ang) Fxyz(a.u.)=   9.9322   15.6222   10.4107    -0.0000   -0.0000    0.0000
     atom= 117, XYZ(ang) Fxyz(a.u.)=   0.0308   11.3777   12.5128     0.0000   -0.0000   -0.0001
     atom= 118, XYZ(ang) Fxyz(a.u.)=   0.8277   10.9107   12.8322     0.0000   -0.0000   -0.0000
     atom= 119, XYZ(ang) Fxyz(a.u.)=   1.3879   10.5943   15.9863    -0.0000    0.0000   -0.0001
     atom= 120, XYZ(ang) Fxyz(a.u.)=   1.6288   10.4502   14.8355     0.0000   -0.0000    0.0000
     atom= 121, XYZ(ang) Fxyz(a.u.)=   1.1552   10.7338   17.1432     0.0000   -0.0000    0.0001

outputting data on grids to files...


***********************************************************
***********************************************************
               Computational Time (second)                 
***********************************************************
***********************************************************

                               Min_ID   Min_Time       Max_ID   Max_Time
   Total Computational Time =     6    10356.214          0    10356.366
   readfile                 =    11        2.566          0        2.571
   truncation               =    23       26.672          7       30.821
   MD_pac                   =     0        1.614         46        1.748
   OutData                  =     5        0.722          0        0.857
   DFT                      =     7    10320.271         23    10324.421

*** In DFT ***

   Set_OLP_Kin              =    23       11.667         18       45.553
   Set_Nonlocal             =    18       62.860         23       96.780
   Set_ProExpn_VNA          =    23      139.205         35      151.376
   Set_Hamiltonian          =    26      570.833          7      570.836
   Poisson                  =    39        9.119          1        9.123
   Diagonalization          =     0     8968.674          6     8968.691
   Mixing_DM                =    34       83.049          9       83.054
   Force                    =     3      119.304         34      119.304
   Total_Energy             =    16       35.258          0       35.270
   Set_Aden_Grid            =    35        2.110         23       14.277
   Set_Orbitals_Grid        =    23        4.943         18       23.005
   Set_Density_Grid         =    28      223.657         14      229.371
   RestartFileDFT           =    49        2.724         40       15.369
   Mulliken_Charge          =    63        0.514          7        0.516
   FFT(2D)_Density          =     5        9.747         18        9.759
   Others                   =    18        7.558         42       19.672

The calculation was normally finished.
