
The number of threads in each node for OpenMP parallelization is 1.


*******************************************************
*******************************************************
 Welcome to OpenMX   Ver. 3.9.9                           
 Copyright (C), 2002-2019, T. Ozaki                    
 OpenMX comes with ABSOLUTELY NO WARRANTY.             
 This is free software, and you are welcome to         
 redistribute it under the constitution of the GNU-GPL.
*******************************************************
*******************************************************

Automatic determination of Kerker_factor:   3.992945286074


<Input_std>  Your input file was normally read.
<Input_std>  The system includes 3 species and 127 atoms.

*******************************************************
                     PAO and VPS                       
*******************************************************

<SetPara_DFT>  PAOs of species H were normally found.
<SetPara_DFT>  PAOs of species C were normally found.
<SetPara_DFT>  PAOs of species O were normally found.
<SetPara_DFT>  VPSs of species H were normally found.
               H_PBE19.vps is j-dependent.
               In case of scf.SpinOrbit.Coupling=off,
               j-dependent pseudo potentials are averaged by j-degeneracy,
               which corresponds to a scalar relativistic treatment.
<SetPara_DFT>  VPSs of species C were normally found.
               C_PBE19.vps is j-dependent.
               In case of scf.SpinOrbit.Coupling=off,
               j-dependent pseudo potentials are averaged by j-degeneracy,
               which corresponds to a scalar relativistic treatment.
<SetPara_DFT>  VPSs of species O were normally found.
               O_PBE19.vps is j-dependent.
               In case of scf.SpinOrbit.Coupling=off,
               j-dependent pseudo potentials are averaged by j-degeneracy,
               which corresponds to a scalar relativistic treatment.

*******************************************************
     Fourier transform of PAO and projectors of VNL    
*******************************************************

<FT_PAO>          Fourier transform of pseudo atomic orbitals
<FT_NLP>          Fourier transform of non-local projectors
<FT_ProExpn_VNA>  Fourier transform of VNA separable projectors
<FT_VNA>          Fourier transform of VNA potentials
<FT_ProductPAO>   Fourier transform of product of PAOs

*******************************************************
  Allocation of atoms to processors at MD_iter=    1     
*******************************************************

 proc =   0  # of atoms=   1  estimated weight=         1.00000
 proc =   1  # of atoms=   2  estimated weight=         2.00000
 proc =   2  # of atoms=   2  estimated weight=         2.00000
 proc =   3  # of atoms=   2  estimated weight=         2.00000
 proc =   4  # of atoms=   2  estimated weight=         2.00000
 proc =   5  # of atoms=   2  estimated weight=         2.00000
 proc =   6  # of atoms=   2  estimated weight=         2.00000
 proc =   7  # of atoms=   2  estimated weight=         2.00000
 proc =   8  # of atoms=   2  estimated weight=         2.00000
 proc =   9  # of atoms=   2  estimated weight=         2.00000
 proc =  10  # of atoms=   2  estimated weight=         2.00000
 proc =  11  # of atoms=   2  estimated weight=         2.00000
 proc =  12  # of atoms=   2  estimated weight=         2.00000
 proc =  13  # of atoms=   2  estimated weight=         2.00000
 proc =  14  # of atoms=   2  estimated weight=         2.00000
 proc =  15  # of atoms=   2  estimated weight=         2.00000
 proc =  16  # of atoms=   2  estimated weight=         2.00000
 proc =  17  # of atoms=   2  estimated weight=         2.00000
 proc =  18  # of atoms=   2  estimated weight=         2.00000
 proc =  19  # of atoms=   2  estimated weight=         2.00000
 proc =  20  # of atoms=   2  estimated weight=         2.00000
 proc =  21  # of atoms=   2  estimated weight=         2.00000
 proc =  22  # of atoms=   2  estimated weight=         2.00000
 proc =  23  # of atoms=   2  estimated weight=         2.00000
 proc =  24  # of atoms=   2  estimated weight=         2.00000
 proc =  25  # of atoms=   2  estimated weight=         2.00000
 proc =  26  # of atoms=   2  estimated weight=         2.00000
 proc =  27  # of atoms=   2  estimated weight=         2.00000
 proc =  28  # of atoms=   2  estimated weight=         2.00000
 proc =  29  # of atoms=   2  estimated weight=         2.00000
 proc =  30  # of atoms=   2  estimated weight=         2.00000
 proc =  31  # of atoms=   2  estimated weight=         2.00000
 proc =  32  # of atoms=   2  estimated weight=         2.00000
 proc =  33  # of atoms=   2  estimated weight=         2.00000
 proc =  34  # of atoms=   2  estimated weight=         2.00000
 proc =  35  # of atoms=   2  estimated weight=         2.00000
 proc =  36  # of atoms=   2  estimated weight=         2.00000
 proc =  37  # of atoms=   2  estimated weight=         2.00000
 proc =  38  # of atoms=   2  estimated weight=         2.00000
 proc =  39  # of atoms=   2  estimated weight=         2.00000
 proc =  40  # of atoms=   2  estimated weight=         2.00000
 proc =  41  # of atoms=   2  estimated weight=         2.00000
 proc =  42  # of atoms=   2  estimated weight=         2.00000
 proc =  43  # of atoms=   2  estimated weight=         2.00000
 proc =  44  # of atoms=   2  estimated weight=         2.00000
 proc =  45  # of atoms=   2  estimated weight=         2.00000
 proc =  46  # of atoms=   2  estimated weight=         2.00000
 proc =  47  # of atoms=   2  estimated weight=         2.00000
 proc =  48  # of atoms=   2  estimated weight=         2.00000
 proc =  49  # of atoms=   2  estimated weight=         2.00000
 proc =  50  # of atoms=   2  estimated weight=         2.00000
 proc =  51  # of atoms=   2  estimated weight=         2.00000
 proc =  52  # of atoms=   2  estimated weight=         2.00000
 proc =  53  # of atoms=   2  estimated weight=         2.00000
 proc =  54  # of atoms=   2  estimated weight=         2.00000
 proc =  55  # of atoms=   2  estimated weight=         2.00000
 proc =  56  # of atoms=   2  estimated weight=         2.00000
 proc =  57  # of atoms=   2  estimated weight=         2.00000
 proc =  58  # of atoms=   2  estimated weight=         2.00000
 proc =  59  # of atoms=   2  estimated weight=         2.00000
 proc =  60  # of atoms=   2  estimated weight=         2.00000
 proc =  61  # of atoms=   2  estimated weight=         2.00000
 proc =  62  # of atoms=   2  estimated weight=         2.00000
 proc =  63  # of atoms=   2  estimated weight=         2.00000




*******************************************************
        Analysis of neighbors and setting of grids        
*******************************************************

TFNAN=    5492   Average FNAN=  43.24409
TSNAN=       0   Average SNAN=   0.00000
<truncation> CpyCell= 1 ct_AN=   1 FNAN SNAN  45   0
<truncation> CpyCell= 1 ct_AN=   2 FNAN SNAN  46   0
<truncation> CpyCell= 1 ct_AN=   3 FNAN SNAN  47   0
<truncation> CpyCell= 1 ct_AN=   4 FNAN SNAN  47   0
<truncation> CpyCell= 1 ct_AN=   5 FNAN SNAN  45   0
<truncation> CpyCell= 1 ct_AN=   6 FNAN SNAN  45   0
<truncation> CpyCell= 1 ct_AN=   7 FNAN SNAN  45   0
<truncation> CpyCell= 1 ct_AN=   8 FNAN SNAN  45   0
<truncation> CpyCell= 1 ct_AN=   9 FNAN SNAN  44   0
<truncation> CpyCell= 1 ct_AN=  10 FNAN SNAN  44   0
<truncation> CpyCell= 1 ct_AN=  11 FNAN SNAN  45   0
<truncation> CpyCell= 1 ct_AN=  12 FNAN SNAN  46   0
<truncation> CpyCell= 1 ct_AN=  13 FNAN SNAN  46   0
<truncation> CpyCell= 1 ct_AN=  14 FNAN SNAN  46   0
<truncation> CpyCell= 1 ct_AN=  15 FNAN SNAN  45   0
<truncation> CpyCell= 1 ct_AN=  16 FNAN SNAN  45   0
<truncation> CpyCell= 1 ct_AN=  17 FNAN SNAN  44   0
<truncation> CpyCell= 1 ct_AN=  18 FNAN SNAN  41   0
<truncation> CpyCell= 1 ct_AN=  19 FNAN SNAN  43   0
<truncation> CpyCell= 1 ct_AN=  20 FNAN SNAN  44   0
     ..........
     ......

TFNAN=    5492   Average FNAN=  43.24409
TSNAN=       0   Average SNAN=   0.00000
<truncation> CpyCell= 2 ct_AN=   1 FNAN SNAN  45   0
<truncation> CpyCell= 2 ct_AN=   2 FNAN SNAN  46   0
<truncation> CpyCell= 2 ct_AN=   3 FNAN SNAN  47   0
<truncation> CpyCell= 2 ct_AN=   4 FNAN SNAN  47   0
<truncation> CpyCell= 2 ct_AN=   5 FNAN SNAN  45   0
<truncation> CpyCell= 2 ct_AN=   6 FNAN SNAN  45   0
<truncation> CpyCell= 2 ct_AN=   7 FNAN SNAN  45   0
<truncation> CpyCell= 2 ct_AN=   8 FNAN SNAN  45   0
<truncation> CpyCell= 2 ct_AN=   9 FNAN SNAN  44   0
<truncation> CpyCell= 2 ct_AN=  10 FNAN SNAN  44   0
<truncation> CpyCell= 2 ct_AN=  11 FNAN SNAN  45   0
<truncation> CpyCell= 2 ct_AN=  12 FNAN SNAN  46   0
<truncation> CpyCell= 2 ct_AN=  13 FNAN SNAN  46   0
<truncation> CpyCell= 2 ct_AN=  14 FNAN SNAN  46   0
<truncation> CpyCell= 2 ct_AN=  15 FNAN SNAN  45   0
<truncation> CpyCell= 2 ct_AN=  16 FNAN SNAN  45   0
<truncation> CpyCell= 2 ct_AN=  17 FNAN SNAN  44   0
<truncation> CpyCell= 2 ct_AN=  18 FNAN SNAN  41   0
<truncation> CpyCell= 2 ct_AN=  19 FNAN SNAN  43   0
<truncation> CpyCell= 2 ct_AN=  20 FNAN SNAN  44   0
     ..........
     ......

TFNAN=    5492   Average FNAN=  43.24409
TSNAN=       0   Average SNAN=   0.00000
<truncation> CpyCell= 2 ct_AN=   1 FNAN SNAN  45   0
<truncation> CpyCell= 2 ct_AN=   2 FNAN SNAN  46   0
<truncation> CpyCell= 2 ct_AN=   3 FNAN SNAN  47   0
<truncation> CpyCell= 2 ct_AN=   4 FNAN SNAN  47   0
<truncation> CpyCell= 2 ct_AN=   5 FNAN SNAN  45   0
<truncation> CpyCell= 2 ct_AN=   6 FNAN SNAN  45   0
<truncation> CpyCell= 2 ct_AN=   7 FNAN SNAN  45   0
<truncation> CpyCell= 2 ct_AN=   8 FNAN SNAN  45   0
<truncation> CpyCell= 2 ct_AN=   9 FNAN SNAN  44   0
<truncation> CpyCell= 2 ct_AN=  10 FNAN SNAN  44   0
<truncation> CpyCell= 2 ct_AN=  11 FNAN SNAN  45   0
<truncation> CpyCell= 2 ct_AN=  12 FNAN SNAN  46   0
<truncation> CpyCell= 2 ct_AN=  13 FNAN SNAN  46   0
<truncation> CpyCell= 2 ct_AN=  14 FNAN SNAN  46   0
<truncation> CpyCell= 2 ct_AN=  15 FNAN SNAN  45   0
<truncation> CpyCell= 2 ct_AN=  16 FNAN SNAN  45   0
<truncation> CpyCell= 2 ct_AN=  17 FNAN SNAN  44   0
<truncation> CpyCell= 2 ct_AN=  18 FNAN SNAN  41   0
<truncation> CpyCell= 2 ct_AN=  19 FNAN SNAN  43   0
<truncation> CpyCell= 2 ct_AN=  20 FNAN SNAN  44   0
     ..........
     ......

<Check_System> The system is slab.
lattice vectors (bohr)
A  = 37.299978480367,  0.000000000000,  0.000000000000
B  = -18.649989240184, 32.302728872609,  0.000000000000
C  =  0.000000000000,  0.000000000000, 39.684245760157
reciprocal lattice vectors (bohr^-1)
RA =  0.168450105420,  0.097254713866, -0.000000000000
RB =  0.000000000000,  0.194509427732,  0.000000000000
RC =  0.000000000000, -0.000000000000,  0.158329462658
Grid_Origin -0.058338086536  0.089745100277  0.322339967516
Cell_Volume =  47815.194201431834 (Bohr^3)
GridVol     =      0.006832303698 (Bohr^3)
Grid_Origin -0.058338086536  0.089745100277  0.322339967516
Cell_Volume =  47815.194201431834 (Bohr^3)
GridVol     =      0.006832303698 (Bohr^3)
<UCell_Box> Info. of cutoff energy and num. of grids
lattice vectors (bohr)
A  = 37.299978480367,  0.000000000000,  0.000000000000
B  = -18.649989240184, 32.302728872609,  0.000000000000
C  =  0.000000000000,  0.000000000000, 39.684245760157
reciprocal lattice vectors (bohr^-1)
RA =  0.168450105420,  0.097254713866, -0.000000000000
RB =  0.000000000000,  0.194509427732,  0.000000000000
RC =  0.000000000000, -0.000000000000,  0.158329462658
Required cutoff energy (Ryd) for 3D-grids = 300.0000
    Used cutoff energy (Ryd) for 3D-grids = 306.4547, 306.4547, 292.3957
Num. of grids of a-, b-, and c-axes = 180, 180, 216
Grid_Origin -0.058338086536  0.089745100277  0.322339967516
Cell_Volume =  47815.194201431834 (Bohr^3)
GridVol     =      0.006832303698 (Bohr^3)
Cell vectors (bohr) of the grid cell (gtv)
  gtv_a =  0.207222102669,  0.000000000000,  0.000000000000
  gtv_b = -0.103611051334,  0.179459604848,  0.000000000000
  gtv_c =  0.000000000000,  0.000000000000,  0.183723360001
  |gtv_a| =  0.207222102669
  |gtv_b| =  0.207222102419
  |gtv_c| =  0.183723360001
Num. of grids overlapping with atom    1 = 132416
Num. of grids overlapping with atom    2 = 132419
Num. of grids overlapping with atom    3 = 132388
Num. of grids overlapping with atom    4 = 132412
Num. of grids overlapping with atom    5 = 132424
Num. of grids overlapping with atom    6 = 132424
Num. of grids overlapping with atom    7 = 132405
Num. of grids overlapping with atom    8 = 132546
Num. of grids overlapping with atom    9 = 132397
Num. of grids overlapping with atom   10 = 132393
Num. of grids overlapping with atom   11 = 132380
Num. of grids overlapping with atom   12 = 132429
Num. of grids overlapping with atom   13 = 132450
Num. of grids overlapping with atom   14 = 132413
Num. of grids overlapping with atom   15 = 132395
Num. of grids overlapping with atom   16 = 132394
Num. of grids overlapping with atom   17 = 132374
Num. of grids overlapping with atom   18 = 132434
Num. of grids overlapping with atom   19 = 132430
Num. of grids overlapping with atom   20 = 132454
     ..........
     ......


*******************************************************
             SCF calculation at MD = 1                
*******************************************************

<MD= 1>  Calculation of the overlap matrix
<MD= 1>  Calculation of the nonlocal matrix
<MD= 1>  Calculation of the VNA projector matrix

******************* MD= 1  SCF= 1 *******************
<Band>  Solving the eigenvalue problem...
 KGrids1:  -0.43750  -0.31250  -0.18750  -0.06250   0.06250   0.18750   0.31250   0.43750 
 KGrids2:  -0.43750  -0.31250  -0.18750  -0.06250   0.06250   0.18750   0.31250   0.43750 
 KGrids3:   0.00000 
<Band_DFT>  Eigen, time=21.186999
<Band_DFT>  DM, time=0.000010
    1    C  MulP   1.9948  1.9948 sum   3.9896
    2    C  MulP   1.9907  1.9907 sum   3.9815
    3    C  MulP   1.9942  1.9942 sum   3.9884
    4    C  MulP   1.9912  1.9912 sum   3.9824
    5    C  MulP   1.9905  1.9905 sum   3.9810
    6    C  MulP   1.9945  1.9945 sum   3.9890
    7    C  MulP   1.9947  1.9947 sum   3.9893
    8    C  MulP   1.9904  1.9904 sum   3.9808
    9    C  MulP   1.9932  1.9932 sum   3.9864
   10    C  MulP   1.9881  1.9881 sum   3.9761
   11    C  MulP   1.9963  1.9963 sum   3.9926
   12    C  MulP   1.9936  1.9936 sum   3.9872
   13    C  MulP   1.9923  1.9923 sum   3.9845
   14    C  MulP   1.9934  1.9934 sum   3.9868
   15    C  MulP   1.9914  1.9914 sum   3.9827
   16    C  MulP   1.9947  1.9947 sum   3.9894
   17    C  MulP   1.9885  1.9885 sum   3.9770
   18    C  MulP   1.9891  1.9891 sum   3.9782
   19    C  MulP   1.9844  1.9844 sum   3.9688
   20    C  MulP   1.9895  1.9895 sum   3.9790
     ..........
     ......

 Sum of MulP: up   =   255.50000 down          =   255.50000
              total=   511.00000 ideal(neutral)=   511.00000
<DFT>  Total Spin Moment (muB) =  0.000000000000
<DFT>  Mixing_weight= 0.050000000000
<DFT>  Uele   = -210.052049319053  dUele     =   1.000000000000
<DFT>  NormRD =    1.000000000000  Criterion =   0.000000010000

******************* MD= 1  SCF= 2 *******************
<Poisson>  Poisson's equation using FFT...
<Set_Hamiltonian>  Hamiltonian matrix for VNA+dVH+Vxc...
<Band>  Solving the eigenvalue problem...
 KGrids1:  -0.43750  -0.31250  -0.18750  -0.06250   0.06250   0.18750   0.31250   0.43750 
 KGrids2:  -0.43750  -0.31250  -0.18750  -0.06250   0.06250   0.18750   0.31250   0.43750 
 KGrids3:   0.00000 
<Band_DFT>  Eigen, time=12.369763
<Band_DFT>  DM, time=0.000000
    1    C  MulP   1.9948  1.9948 sum   3.9896
    2    C  MulP   1.9907  1.9907 sum   3.9815
    3    C  MulP   1.9942  1.9942 sum   3.9884
    4    C  MulP   1.9912  1.9912 sum   3.9824
    5    C  MulP   1.9905  1.9905 sum   3.9810
    6    C  MulP   1.9945  1.9945 sum   3.9890
    7    C  MulP   1.9947  1.9947 sum   3.9893
    8    C  MulP   1.9904  1.9904 sum   3.9808
    9    C  MulP   1.9932  1.9932 sum   3.9864
   10    C  MulP   1.9881  1.9881 sum   3.9761
   11    C  MulP   1.9963  1.9963 sum   3.9926
   12    C  MulP   1.9936  1.9936 sum   3.9872
   13    C  MulP   1.9923  1.9923 sum   3.9845
   14    C  MulP   1.9934  1.9934 sum   3.9868
   15    C  MulP   1.9914  1.9914 sum   3.9827
   16    C  MulP   1.9947  1.9947 sum   3.9894
   17    C  MulP   1.9885  1.9885 sum   3.9770
   18    C  MulP   1.9891  1.9891 sum   3.9782
   19    C  MulP   1.9844  1.9844 sum   3.9688
   20    C  MulP   1.9895  1.9895 sum   3.9790
     ..........
     ......

 Sum of MulP: up   =   255.50000 down          =   255.50000
              total=   511.00000 ideal(neutral)=   511.00000
<DFT>  Total Spin Moment (muB) =  0.000000000000
<DFT>  Mixing_weight= 0.010000000000
<DFT>  Uele   = -210.052049319053  dUele     =   0.000000000000
<DFT>  NormRD =   10.431680679059  Criterion =   0.000000010000

******************* MD= 1  SCF= 3 *******************
<Poisson>  Poisson's equation using FFT...
<Set_Hamiltonian>  Hamiltonian matrix for VNA+dVH+Vxc...
<Band>  Solving the eigenvalue problem...
 KGrids1:  -0.43750  -0.31250  -0.18750  -0.06250   0.06250   0.18750   0.31250   0.43750 
 KGrids2:  -0.43750  -0.31250  -0.18750  -0.06250   0.06250   0.18750   0.31250   0.43750 
 KGrids3:   0.00000 
<Band_DFT>  Eigen, time=12.372922
<Band_DFT>  DM, time=0.000000
    1    C  MulP   1.9950  1.9950 sum   3.9900
    2    C  MulP   1.9911  1.9911 sum   3.9822
    3    C  MulP   1.9945  1.9945 sum   3.9890
    4    C  MulP   1.9916  1.9916 sum   3.9832
    5    C  MulP   1.9908  1.9908 sum   3.9816
    6    C  MulP   1.9947  1.9947 sum   3.9893
    7    C  MulP   1.9949  1.9949 sum   3.9897
    8    C  MulP   1.9907  1.9907 sum   3.9815
    9    C  MulP   1.9934  1.9934 sum   3.9869
   10    C  MulP   1.9885  1.9885 sum   3.9770
   11    C  MulP   1.9964  1.9964 sum   3.9928
   12    C  MulP   1.9941  1.9941 sum   3.9882
   13    C  MulP   1.9926  1.9926 sum   3.9852
   14    C  MulP   1.9937  1.9937 sum   3.9874
   15    C  MulP   1.9916  1.9916 sum   3.9833
   16    C  MulP   1.9949  1.9949 sum   3.9898
   17    C  MulP   1.9888  1.9888 sum   3.9776
   18    C  MulP   1.9891  1.9891 sum   3.9781
   19    C  MulP   1.9846  1.9846 sum   3.9691
   20    C  MulP   1.9895  1.9895 sum   3.9790
     ..........
     ......

 Sum of MulP: up   =   255.50000 down          =   255.50000
              total=   511.00000 ideal(neutral)=   511.00000
<DFT>  Total Spin Moment (muB) =  0.000000000000
<DFT>  Mixing_weight= 0.300000000000
<DFT>  Uele   = -210.435491226105  dUele     =   0.383441907052
<DFT>  NormRD =   10.294756196036  Criterion =   0.000000010000

******************* MD= 1  SCF= 4 *******************
<Poisson>  Poisson's equation using FFT...
<Set_Hamiltonian>  Hamiltonian matrix for VNA+dVH+Vxc...
<Band>  Solving the eigenvalue problem...
 KGrids1:  -0.43750  -0.31250  -0.18750  -0.06250   0.06250   0.18750   0.31250   0.43750 
 KGrids2:  -0.43750  -0.31250  -0.18750  -0.06250   0.06250   0.18750   0.31250   0.43750 
 KGrids3:   0.00000 
<Band_DFT>  Eigen, time=12.347256
<Band_DFT>  DM, time=0.000000
    1    C  MulP   1.9988  1.9988 sum   3.9976
    2    C  MulP   1.9985  1.9985 sum   3.9971
    3    C  MulP   1.9998  1.9998 sum   3.9995
    4    C  MulP   1.9993  1.9993 sum   3.9985
    5    C  MulP   1.9985  1.9985 sum   3.9969
    6    C  MulP   1.9979  1.9979 sum   3.9958
    7    C  MulP   1.9988  1.9988 sum   3.9975
    8    C  MulP   1.9979  1.9979 sum   3.9957
    9    C  MulP   1.9989  1.9989 sum   3.9978
   10    C  MulP   1.9988  1.9988 sum   3.9977
   11    C  MulP   1.9974  1.9974 sum   3.9949
   12    C  MulP   2.0030  2.0030 sum   4.0060
   13    C  MulP   1.9973  1.9973 sum   3.9945
   14    C  MulP   1.9988  1.9988 sum   3.9975
   15    C  MulP   1.9979  1.9979 sum   3.9957
   16    C  MulP   1.9981  1.9981 sum   3.9961
   17    C  MulP   1.9965  1.9965 sum   3.9930
   18    C  MulP   1.9945  1.9945 sum   3.9891
   19    C  MulP   1.9869  1.9869 sum   3.9738
   20    C  MulP   1.9844  1.9844 sum   3.9689
     ..........
     ......

 Sum of MulP: up   =   255.50000 down          =   255.50000
              total=   511.00000 ideal(neutral)=   511.00000
<DFT>  Total Spin Moment (muB) =  0.000000000000
<DFT>  Mixing_weight= 0.300000000000
<DFT>  Uele   = -221.875052684393  dUele     =  11.439561458288
<DFT>  NormRD =    6.519031370414  Criterion =   0.000000010000

******************* MD= 1  SCF= 5 *******************
<Poisson>  Poisson's equation using FFT...
<Set_Hamiltonian>  Hamiltonian matrix for VNA+dVH+Vxc...
<Band>  Solving the eigenvalue problem...
 KGrids1:  -0.43750  -0.31250  -0.18750  -0.06250   0.06250   0.18750   0.31250   0.43750 
 KGrids2:  -0.43750  -0.31250  -0.18750  -0.06250   0.06250   0.18750   0.31250   0.43750 
 KGrids3:   0.00000 
<Band_DFT>  Eigen, time=12.409771
<Band_DFT>  DM, time=0.000000
    1    C  MulP   1.9979  1.9979 sum   3.9958
    2    C  MulP   1.9962  1.9962 sum   3.9923
    3    C  MulP   1.9986  1.9986 sum   3.9972
    4    C  MulP   1.9942  1.9942 sum   3.9885
    5    C  MulP   1.9973  1.9973 sum   3.9947
    6    C  MulP   1.9976  1.9976 sum   3.9953
    7    C  MulP   1.9976  1.9976 sum   3.9953
    8    C  MulP   1.9974  1.9974 sum   3.9947
    9    C  MulP   1.9985  1.9985 sum   3.9969
   10    C  MulP   1.9947  1.9947 sum   3.9895
   11    C  MulP   1.9974  1.9974 sum   3.9948
   12    C  MulP   1.9922  1.9922 sum   3.9844
   13    C  MulP   1.9955  1.9955 sum   3.9911
   14    C  MulP   1.9965  1.9965 sum   3.9929
   15    C  MulP   1.9975  1.9975 sum   3.9951
   16    C  MulP   1.9982  1.9982 sum   3.9963
   17    C  MulP   1.9973  1.9973 sum   3.9945
   18    C  MulP   2.0091  2.0091 sum   4.0182
   19    C  MulP   1.9759  1.9759 sum   3.9518
   20    C  MulP   1.9632  1.9632 sum   3.9264
     ..........
     ......

 Sum of MulP: up   =   255.50000 down          =   255.50000
              total=   511.00000 ideal(neutral)=   511.00000
<DFT>  Total Spin Moment (muB) =  0.000000000000
<DFT>  Mixing_weight= 0.300000000000
<DFT>  Uele   = -229.345554595690  dUele     =   7.470501911297
<DFT>  NormRD =    4.518321249225  Criterion =   0.000000010000

******************* MD= 1  SCF= 6 *******************
<Poisson>  Poisson's equation using FFT...
<Set_Hamiltonian>  Hamiltonian matrix for VNA+dVH+Vxc...
<Band>  Solving the eigenvalue problem...
 KGrids1:  -0.43750  -0.31250  -0.18750  -0.06250   0.06250   0.18750   0.31250   0.43750 
 KGrids2:  -0.43750  -0.31250  -0.18750  -0.06250   0.06250   0.18750   0.31250   0.43750 
 KGrids3:   0.00000 
<Band_DFT>  Eigen, time=12.369055
<Band_DFT>  DM, time=0.000000
    1    C  MulP   1.9997  1.9997 sum   3.9994
    2    C  MulP   1.9970  1.9970 sum   3.9941
    3    C  MulP   1.9966  1.9966 sum   3.9932
    4    C  MulP   1.9997  1.9997 sum   3.9993
    5    C  MulP   1.9984  1.9984 sum   3.9969
    6    C  MulP   1.9987  1.9987 sum   3.9973
    7    C  MulP   1.9990  1.9990 sum   3.9980
    8    C  MulP   1.9979  1.9979 sum   3.9959
    9    C  MulP   1.9986  1.9986 sum   3.9972
   10    C  MulP   1.9995  1.9995 sum   3.9990
   11    C  MulP   1.9926  1.9926 sum   3.9852
   12    C  MulP   2.0026  2.0026 sum   4.0052
   13    C  MulP   1.9995  1.9995 sum   3.9989
   14    C  MulP   1.9989  1.9989 sum   3.9977
   15    C  MulP   1.9979  1.9979 sum   3.9958
   16    C  MulP   1.9987  1.9987 sum   3.9975
   17    C  MulP   1.9962  1.9962 sum   3.9924
   18    C  MulP   1.9844  1.9844 sum   3.9687
   19    C  MulP   1.9911  1.9911 sum   3.9822
   20    C  MulP   1.9828  1.9828 sum   3.9656
     ..........
     ......

 Sum of MulP: up   =   255.50000 down          =   255.50000
              total=   511.00000 ideal(neutral)=   511.00000
<DFT>  Total Spin Moment (muB) =  0.000000000000
<DFT>  Mixing_weight= 0.300000000000
<DFT>  Uele   = -234.427136893373  dUele     =   5.081582297683
<DFT>  NormRD =    3.585851497554  Criterion =   0.000000010000

******************* MD= 1  SCF= 7 *******************
<Poisson>  Poisson's equation using FFT...
<Set_Hamiltonian>  Hamiltonian matrix for VNA+dVH+Vxc...
<Band>  Solving the eigenvalue problem...
 KGrids1:  -0.43750  -0.31250  -0.18750  -0.06250   0.06250   0.18750   0.31250   0.43750 
 KGrids2:  -0.43750  -0.31250  -0.18750  -0.06250   0.06250   0.18750   0.31250   0.43750 
 KGrids3:   0.00000 
<Band_DFT>  Eigen, time=12.346797
<Band_DFT>  DM, time=0.000000
    1    C  MulP   1.9987  1.9987 sum   3.9974
    2    C  MulP   2.0011  2.0011 sum   4.0021
    3    C  MulP   2.0041  2.0041 sum   4.0083
    4    C  MulP   1.9980  1.9980 sum   3.9961
    5    C  MulP   2.0001  2.0001 sum   4.0002
    6    C  MulP   1.9991  1.9991 sum   3.9981
    7    C  MulP   1.9996  1.9996 sum   3.9991
    8    C  MulP   2.0001  2.0001 sum   4.0003
    9    C  MulP   2.0011  2.0011 sum   4.0021
   10    C  MulP   1.9978  1.9978 sum   3.9957
   11    C  MulP   2.0038  2.0038 sum   4.0076
   12    C  MulP   1.9988  1.9988 sum   3.9976
   13    C  MulP   1.9972  1.9972 sum   3.9944
   14    C  MulP   1.9991  1.9991 sum   3.9981
   15    C  MulP   2.0002  2.0002 sum   4.0004
   16    C  MulP   1.9995  1.9995 sum   3.9991
   17    C  MulP   2.0013  2.0013 sum   4.0027
   18    C  MulP   2.0195  2.0195 sum   4.0390
   19    C  MulP   1.9800  1.9800 sum   3.9600
   20    C  MulP   1.9577  1.9577 sum   3.9154
     ..........
     ......

 Sum of MulP: up   =   255.50000 down          =   255.50000
              total=   511.00000 ideal(neutral)=   511.00000
<DFT>  Total Spin Moment (muB) =  0.000000000000
<DFT>  Mixing_weight= 0.300000000000
<DFT>  Uele   = -237.584663703814  dUele     =   3.157526810441
<DFT>  NormRD =    3.382278230645  Criterion =   0.000000010000

******************* MD= 1  SCF= 8 *******************
<Poisson>  Poisson's equation using FFT...
<Set_Hamiltonian>  Hamiltonian matrix for VNA+dVH+Vxc...
<Band>  Solving the eigenvalue problem...
 KGrids1:  -0.43750  -0.31250  -0.18750  -0.06250   0.06250   0.18750   0.31250   0.43750 
 KGrids2:  -0.43750  -0.31250  -0.18750  -0.06250   0.06250   0.18750   0.31250   0.43750 
 KGrids3:   0.00000 
<Band_DFT>  Eigen, time=12.358385
<Band_DFT>  DM, time=0.000000
    1    C  MulP   2.0032  2.0032 sum   4.0065
    2    C  MulP   2.0005  2.0005 sum   4.0010
    3    C  MulP   1.9956  1.9956 sum   3.9912
    4    C  MulP   2.0112  2.0112 sum   4.0224
    5    C  MulP   2.0011  2.0011 sum   4.0022
    6    C  MulP   2.0021  2.0021 sum   4.0042
    7    C  MulP   2.0019  2.0019 sum   4.0038
    8    C  MulP   2.0004  2.0004 sum   4.0009
    9    C  MulP   2.0014  2.0014 sum   4.0027
   10    C  MulP   2.0035  2.0035 sum   4.0069
   11    C  MulP   1.9905  1.9905 sum   3.9810
   12    C  MulP   2.0163  2.0163 sum   4.0327
   13    C  MulP   2.0079  2.0079 sum   4.0158
   14    C  MulP   2.0040  2.0040 sum   4.0081
   15    C  MulP   2.0000  2.0000 sum   4.0001
   16    C  MulP   2.0020  2.0020 sum   4.0040
   17    C  MulP   1.9985  1.9985 sum   3.9970
   18    C  MulP   1.9777  1.9777 sum   3.9553
   19    C  MulP   1.9977  1.9977 sum   3.9954
   20    C  MulP   1.9996  1.9996 sum   3.9992
     ..........
     ......

 Sum of MulP: up   =   255.50000 down          =   255.50000
              total=   511.00000 ideal(neutral)=   511.00000
<DFT>  Total Spin Moment (muB) =  0.000000000000
<DFT>  Mixing_weight= 0.126208571424
<DFT>  Uele   = -239.888380584098  dUele     =   2.303716880285
<DFT>  NormRD =    3.968981562932  Criterion =   0.000000010000

******************* MD= 1  SCF= 9 *******************
<Poisson>  Poisson's equation using FFT...
<Set_Hamiltonian>  Hamiltonian matrix for VNA+dVH+Vxc...
<Band>  Solving the eigenvalue problem...
 KGrids1:  -0.43750  -0.31250  -0.18750  -0.06250   0.06250   0.18750   0.31250   0.43750 
 KGrids2:  -0.43750  -0.31250  -0.18750  -0.06250   0.06250   0.18750   0.31250   0.43750 
 KGrids3:   0.00000 
<Band_DFT>  Eigen, time=12.364931
<Band_DFT>  DM, time=0.000000
    1    C  MulP   1.9982  1.9982 sum   3.9963
    2    C  MulP   1.9960  1.9960 sum   3.9920
    3    C  MulP   1.9977  1.9977 sum   3.9953
    4    C  MulP   1.9937  1.9937 sum   3.9875
    5    C  MulP   1.9980  1.9980 sum   3.9959
    6    C  MulP   1.9980  1.9980 sum   3.9961
    7    C  MulP   1.9981  1.9981 sum   3.9962
    8    C  MulP   1.9975  1.9975 sum   3.9950
    9    C  MulP   1.9980  1.9980 sum   3.9960
   10    C  MulP   1.9960  1.9960 sum   3.9919
   11    C  MulP   1.9957  1.9957 sum   3.9913
   12    C  MulP   1.9922  1.9922 sum   3.9843
   13    C  MulP   1.9954  1.9954 sum   3.9908
   14    C  MulP   1.9969  1.9969 sum   3.9938
   15    C  MulP   1.9980  1.9980 sum   3.9959
   16    C  MulP   1.9984  1.9984 sum   3.9968
   17    C  MulP   1.9970  1.9970 sum   3.9941
   18    C  MulP   1.9975  1.9975 sum   3.9950
   19    C  MulP   1.9825  1.9825 sum   3.9650
   20    C  MulP   1.9681  1.9681 sum   3.9362
     ..........
     ......

 Sum of MulP: up   =   255.50000 down          =   255.50000
              total=   511.00000 ideal(neutral)=   511.00000
<DFT>  Total Spin Moment (muB) =  0.000000000000
<DFT>  Mixing_weight= 0.145340917090
<DFT>  Uele   = -240.186407640693  dUele     =   0.298027056594
<DFT>  NormRD =    1.440022383389  Criterion =   0.000000010000

******************* MD= 1  SCF=10 *******************
<Poisson>  Poisson's equation using FFT...
<Set_Hamiltonian>  Hamiltonian matrix for VNA+dVH+Vxc...
<Band>  Solving the eigenvalue problem...
 KGrids1:  -0.43750  -0.31250  -0.18750  -0.06250   0.06250   0.18750   0.31250   0.43750 
 KGrids2:  -0.43750  -0.31250  -0.18750  -0.06250   0.06250   0.18750   0.31250   0.43750 
 KGrids3:   0.00000 
<Band_DFT>  Eigen, time=12.344936
<Band_DFT>  DM, time=0.000000
    1    C  MulP   1.9990  1.9990 sum   3.9980
    2    C  MulP   1.9976  1.9976 sum   3.9952
    3    C  MulP   1.9989  1.9989 sum   3.9979
    4    C  MulP   1.9972  1.9972 sum   3.9943
    5    C  MulP   1.9983  1.9983 sum   3.9966
    6    C  MulP   1.9986  1.9986 sum   3.9971
    7    C  MulP   1.9990  1.9990 sum   3.9980
    8    C  MulP   1.9982  1.9982 sum   3.9963
    9    C  MulP   1.9993  1.9993 sum   3.9986
   10    C  MulP   1.9978  1.9978 sum   3.9956
   11    C  MulP   1.9961  1.9961 sum   3.9922
   12    C  MulP   1.9987  1.9987 sum   3.9974
   13    C  MulP   1.9981  1.9981 sum   3.9961
   14    C  MulP   1.9984  1.9984 sum   3.9969
   15    C  MulP   1.9983  1.9983 sum   3.9965
   16    C  MulP   1.9988  1.9988 sum   3.9976
   17    C  MulP   1.9974  1.9974 sum   3.9947
   18    C  MulP   1.9988  1.9988 sum   3.9976
   19    C  MulP   1.9832  1.9832 sum   3.9664
   20    C  MulP   1.9748  1.9748 sum   3.9496
     ..........
     ......

 Sum of MulP: up   =   255.50000 down          =   255.50000
              total=   511.00000 ideal(neutral)=   511.00000
<DFT>  Total Spin Moment (muB) =  0.000000000000
<DFT>  Mixing_weight= 0.300000000000
<DFT>  Uele   = -240.944707660432  dUele     =   0.758300019740
<DFT>  NormRD =    1.167749143275  Criterion =   0.000000010000

******************* MD= 1  SCF=11 *******************
<Poisson>  Poisson's equation using FFT...
<Set_Hamiltonian>  Hamiltonian matrix for VNA+dVH+Vxc...
<Band>  Solving the eigenvalue problem...
 KGrids1:  -0.43750  -0.31250  -0.18750  -0.06250   0.06250   0.18750   0.31250   0.43750 
 KGrids2:  -0.43750  -0.31250  -0.18750  -0.06250   0.06250   0.18750   0.31250   0.43750 
 KGrids3:   0.00000 
<Band_DFT>  Eigen, time=12.339007
<Band_DFT>  DM, time=0.000000
    1    C  MulP   1.9991  1.9991 sum   3.9982
    2    C  MulP   1.9984  1.9984 sum   3.9968
    3    C  MulP   1.9994  1.9994 sum   3.9988
    4    C  MulP   1.9979  1.9979 sum   3.9958
    5    C  MulP   1.9996  1.9996 sum   3.9993
    6    C  MulP   1.9990  1.9990 sum   3.9979
    7    C  MulP   1.9991  1.9991 sum   3.9982
    8    C  MulP   1.9989  1.9989 sum   3.9977
    9    C  MulP   1.9995  1.9995 sum   3.9990
   10    C  MulP   1.9977  1.9977 sum   3.9955
   11    C  MulP   1.9972  1.9972 sum   3.9944
   12    C  MulP   1.9982  1.9982 sum   3.9964
   13    C  MulP   1.9976  1.9976 sum   3.9952
   14    C  MulP   1.9987  1.9987 sum   3.9974
   15    C  MulP   1.9991  1.9991 sum   3.9982
   16    C  MulP   1.9992  1.9992 sum   3.9984
   17    C  MulP   1.9986  1.9986 sum   3.9971
   18    C  MulP   2.0006  2.0006 sum   4.0012
   19    C  MulP   1.9818  1.9818 sum   3.9635
   20    C  MulP   1.9666  1.9666 sum   3.9333
     ..........
     ......

 Sum of MulP: up   =   255.50000 down          =   255.50000
              total=   511.00000 ideal(neutral)=   511.00000
<DFT>  Total Spin Moment (muB) =  0.000000000000
<DFT>  Mixing_weight= 0.110390343284
<DFT>  Uele   = -242.167927814980  dUele     =   1.223220154547
<DFT>  NormRD =    1.530432717249  Criterion =   0.000000010000

******************* MD= 1  SCF=12 *******************
<Poisson>  Poisson's equation using FFT...
<Set_Hamiltonian>  Hamiltonian matrix for VNA+dVH+Vxc...
<Band>  Solving the eigenvalue problem...
 KGrids1:  -0.43750  -0.31250  -0.18750  -0.06250   0.06250   0.18750   0.31250   0.43750 
 KGrids2:  -0.43750  -0.31250  -0.18750  -0.06250   0.06250   0.18750   0.31250   0.43750 
 KGrids3:   0.00000 
<Band_DFT>  Eigen, time=12.355234
<Band_DFT>  DM, time=0.000000
    1    C  MulP   1.9995  1.9995 sum   3.9990
    2    C  MulP   1.9985  1.9985 sum   3.9969
    3    C  MulP   1.9994  1.9994 sum   3.9988
    4    C  MulP   1.9989  1.9989 sum   3.9979
    5    C  MulP   1.9989  1.9989 sum   3.9978
    6    C  MulP   1.9990  1.9990 sum   3.9980
    7    C  MulP   1.9994  1.9994 sum   3.9988
    8    C  MulP   1.9987  1.9987 sum   3.9974
    9    C  MulP   1.9997  1.9997 sum   3.9995
   10    C  MulP   1.9987  1.9987 sum   3.9974
   11    C  MulP   1.9967  1.9967 sum   3.9934
   12    C  MulP   2.0006  2.0006 sum   4.0012
   13    C  MulP   1.9989  1.9989 sum   3.9977
   14    C  MulP   1.9991  1.9991 sum   3.9983
   15    C  MulP   1.9987  1.9987 sum   3.9974
   16    C  MulP   1.9993  1.9993 sum   3.9985
   17    C  MulP   1.9980  1.9980 sum   3.9960
   18    C  MulP   1.9983  1.9983 sum   3.9966
   19    C  MulP   1.9831  1.9831 sum   3.9662
   20    C  MulP   1.9736  1.9736 sum   3.9473
     ..........
     ......

 Sum of MulP: up   =   255.50000 down          =   255.50000
              total=   511.00000 ideal(neutral)=   511.00000
<DFT>  Total Spin Moment (muB) =  0.000000000000
<DFT>  Mixing_weight= 0.150792990705
<DFT>  Uele   = -242.510095558765  dUele     =   0.342167743786
<DFT>  NormRD =    0.792188577027  Criterion =   0.000000010000

******************* MD= 1  SCF=13 *******************
<Poisson>  Poisson's equation using FFT...
<Set_Hamiltonian>  Hamiltonian matrix for VNA+dVH+Vxc...
<Band>  Solving the eigenvalue problem...
 KGrids1:  -0.43750  -0.31250  -0.18750  -0.06250   0.06250   0.18750   0.31250   0.43750 
 KGrids2:  -0.43750  -0.31250  -0.18750  -0.06250   0.06250   0.18750   0.31250   0.43750 
 KGrids3:   0.00000 
<Band_DFT>  Eigen, time=12.342186
<Band_DFT>  DM, time=0.000000
    1    C  MulP   1.9993  1.9993 sum   3.9986
    2    C  MulP   1.9985  1.9985 sum   3.9971
    3    C  MulP   1.9996  1.9996 sum   3.9991
    4    C  MulP   1.9985  1.9985 sum   3.9971
    5    C  MulP   1.9993  1.9993 sum   3.9986
    6    C  MulP   1.9990  1.9990 sum   3.9980
    7    C  MulP   1.9993  1.9993 sum   3.9987
    8    C  MulP   1.9988  1.9988 sum   3.9977
    9    C  MulP   1.9996  1.9996 sum   3.9993
   10    C  MulP   1.9984  1.9984 sum   3.9968
   11    C  MulP   1.9971  1.9971 sum   3.9942
   12    C  MulP   1.9998  1.9998 sum   3.9997
   13    C  MulP   1.9985  1.9985 sum   3.9970
   14    C  MulP   1.9990  1.9990 sum   3.9981
   15    C  MulP   1.9990  1.9990 sum   3.9979
   16    C  MulP   1.9993  1.9993 sum   3.9985
   17    C  MulP   1.9983  1.9983 sum   3.9967
   18    C  MulP   1.9993  1.9993 sum   3.9986
   19    C  MulP   1.9831  1.9831 sum   3.9663
   20    C  MulP   1.9714  1.9714 sum   3.9427
     ..........
     ......

 Sum of MulP: up   =   255.50000 down          =   255.50000
              total=   511.00000 ideal(neutral)=   511.00000
<DFT>  Total Spin Moment (muB) =  0.000000000000
<DFT>  Mixing_weight= 0.300000000000
<DFT>  Uele   = -242.902277083373  dUele     =   0.392181524608
<DFT>  NormRD =    0.678243463766  Criterion =   0.000000010000

******************* MD= 1  SCF=14 *******************
<Poisson>  Poisson's equation using FFT...
<Set_Hamiltonian>  Hamiltonian matrix for VNA+dVH+Vxc...
<Band>  Solving the eigenvalue problem...
 KGrids1:  -0.43750  -0.31250  -0.18750  -0.06250   0.06250   0.18750   0.31250   0.43750 
 KGrids2:  -0.43750  -0.31250  -0.18750  -0.06250   0.06250   0.18750   0.31250   0.43750 
 KGrids3:   0.00000 
<Band_DFT>  Eigen, time=12.331731
<Band_DFT>  DM, time=0.000000
    1    C  MulP   1.9995  1.9995 sum   3.9991
    2    C  MulP   1.9983  1.9983 sum   3.9965
    3    C  MulP   1.9994  1.9994 sum   3.9987
    4    C  MulP   1.9986  1.9986 sum   3.9973
    5    C  MulP   1.9986  1.9986 sum   3.9973
    6    C  MulP   1.9990  1.9990 sum   3.9980
    7    C  MulP   1.9993  1.9993 sum   3.9987
    8    C  MulP   1.9987  1.9987 sum   3.9974
    9    C  MulP   1.9999  1.9999 sum   3.9998
   10    C  MulP   1.9981  1.9981 sum   3.9961
   11    C  MulP   1.9969  1.9969 sum   3.9938
   12    C  MulP   1.9995  1.9995 sum   3.9990
   13    C  MulP   1.9989  1.9989 sum   3.9978
   14    C  MulP   1.9990  1.9990 sum   3.9980
   15    C  MulP   1.9986  1.9986 sum   3.9973
   16    C  MulP   1.9994  1.9994 sum   3.9987
   17    C  MulP   1.9981  1.9981 sum   3.9962
   18    C  MulP   2.0015  2.0015 sum   4.0031
   19    C  MulP   1.9794  1.9794 sum   3.9588
   20    C  MulP   1.9706  1.9706 sum   3.9411
     ..........
     ......

 Sum of MulP: up   =   255.50000 down          =   255.50000
              total=   511.00000 ideal(neutral)=   511.00000
<DFT>  Total Spin Moment (muB) =  0.000000000000
<DFT>  Mixing_weight= 0.086952224183
<DFT>  Uele   = -243.631339731282  dUele     =   0.729062647908
<DFT>  NormRD =    1.061655885580  Criterion =   0.000000010000

******************* MD= 1  SCF=15 *******************
<Poisson>  Poisson's equation using FFT...
<Set_Hamiltonian>  Hamiltonian matrix for VNA+dVH+Vxc...
<Band>  Solving the eigenvalue problem...
 KGrids1:  -0.43750  -0.31250  -0.18750  -0.06250   0.06250   0.18750   0.31250   0.43750 
 KGrids2:  -0.43750  -0.31250  -0.18750  -0.06250   0.06250   0.18750   0.31250   0.43750 
 KGrids3:   0.00000 
<Band_DFT>  Eigen, time=12.404256
<Band_DFT>  DM, time=0.000000
    1    C  MulP   1.9995  1.9995 sum   3.9990
    2    C  MulP   1.9985  1.9985 sum   3.9970
    3    C  MulP   1.9992  1.9992 sum   3.9984
    4    C  MulP   1.9989  1.9989 sum   3.9979
    5    C  MulP   1.9991  1.9991 sum   3.9981
    6    C  MulP   1.9991  1.9991 sum   3.9982
    7    C  MulP   1.9994  1.9994 sum   3.9988
    8    C  MulP   1.9988  1.9988 sum   3.9976
    9    C  MulP   1.9997  1.9997 sum   3.9994
   10    C  MulP   1.9989  1.9989 sum   3.9978
   11    C  MulP   1.9966  1.9966 sum   3.9933
   12    C  MulP   2.0004  2.0004 sum   4.0008
   13    C  MulP   1.9988  1.9988 sum   3.9976
   14    C  MulP   1.9992  1.9992 sum   3.9983
   15    C  MulP   1.9989  1.9989 sum   3.9977
   16    C  MulP   1.9993  1.9993 sum   3.9987
   17    C  MulP   1.9982  1.9982 sum   3.9965
   18    C  MulP   1.9985  1.9985 sum   3.9969
   19    C  MulP   1.9850  1.9850 sum   3.9700
   20    C  MulP   1.9736  1.9736 sum   3.9472
     ..........
     ......

 Sum of MulP: up   =   255.50000 down          =   255.50000
              total=   511.00000 ideal(neutral)=   511.00000
<DFT>  Total Spin Moment (muB) =  0.000000000000
<DFT>  Mixing_weight= 0.030000000000
<DFT>  Uele   = -243.776344110490  dUele     =   0.145004379208
<DFT>  NormRD =    0.400005104472  Criterion =   0.000000010000

******************* MD= 1  SCF=16 *******************
<Poisson>  Poisson's equation using FFT...
<Set_Hamiltonian>  Hamiltonian matrix for VNA+dVH+Vxc...
<Band>  Solving the eigenvalue problem...
 KGrids1:  -0.43750  -0.31250  -0.18750  -0.06250   0.06250   0.18750   0.31250   0.43750 
 KGrids2:  -0.43750  -0.31250  -0.18750  -0.06250   0.06250   0.18750   0.31250   0.43750 
 KGrids3:   0.00000 
<Band_DFT>  Eigen, time=12.350470
<Band_DFT>  DM, time=0.000000
    1    C  MulP   1.9989  1.9989 sum   3.9978
    2    C  MulP   1.9976  1.9976 sum   3.9952
    3    C  MulP   2.0006  2.0006 sum   4.0012
    4    C  MulP   1.9966  1.9966 sum   3.9932
    5    C  MulP   1.9996  1.9996 sum   3.9992
    6    C  MulP   1.9992  1.9992 sum   3.9984
    7    C  MulP   1.9992  1.9992 sum   3.9984
    8    C  MulP   1.9990  1.9990 sum   3.9979
    9    C  MulP   1.9997  1.9997 sum   3.9995
   10    C  MulP   1.9942  1.9942 sum   3.9883
   11    C  MulP   1.9976  1.9976 sum   3.9951
   12    C  MulP   1.9942  1.9942 sum   3.9885
   13    C  MulP   1.9978  1.9978 sum   3.9955
   14    C  MulP   1.9985  1.9985 sum   3.9970
   15    C  MulP   1.9993  1.9993 sum   3.9986
   16    C  MulP   1.9995  1.9995 sum   3.9990
   17    C  MulP   1.9990  1.9990 sum   3.9980
   18    C  MulP   2.0061  2.0061 sum   4.0121
   19    C  MulP   1.9633  1.9633 sum   3.9266
   20    C  MulP   1.9548  1.9548 sum   3.9097
     ..........
     ......

 Sum of MulP: up   =   255.50000 down          =   255.50000
              total=   511.00000 ideal(neutral)=   511.00000
<DFT>  Total Spin Moment (muB) =  0.000000000000
<DFT>  Mixing_weight= 0.030000000000
<DFT>  Uele   = -245.696285559263  dUele     =   1.919941448773
<DFT>  NormRD =    1.333546642775  Criterion =   0.000000010000

******************* MD= 1  SCF=17 *******************
<Poisson>  Poisson's equation using FFT...
<Set_Hamiltonian>  Hamiltonian matrix for VNA+dVH+Vxc...
<Band>  Solving the eigenvalue problem...
 KGrids1:  -0.43750  -0.31250  -0.18750  -0.06250   0.06250   0.18750   0.31250   0.43750 
 KGrids2:  -0.43750  -0.31250  -0.18750  -0.06250   0.06250   0.18750   0.31250   0.43750 
 KGrids3:   0.00000 
<Band_DFT>  Eigen, time=12.361584
<Band_DFT>  DM, time=0.000000
    1    C  MulP   1.9996  1.9996 sum   3.9991
    2    C  MulP   1.9985  1.9985 sum   3.9970
    3    C  MulP   1.9992  1.9992 sum   3.9984
    4    C  MulP   1.9991  1.9991 sum   3.9981
    5    C  MulP   1.9991  1.9991 sum   3.9981
    6    C  MulP   1.9991  1.9991 sum   3.9983
    7    C  MulP   1.9995  1.9995 sum   3.9990
    8    C  MulP   1.9988  1.9988 sum   3.9977
    9    C  MulP   1.9998  1.9998 sum   3.9995
   10    C  MulP   1.9990  1.9990 sum   3.9979
   11    C  MulP   1.9967  1.9967 sum   3.9933
   12    C  MulP   2.0007  2.0007 sum   4.0014
   13    C  MulP   1.9989  1.9989 sum   3.9977
   14    C  MulP   1.9992  1.9992 sum   3.9984
   15    C  MulP   1.9989  1.9989 sum   3.9977
   16    C  MulP   1.9994  1.9994 sum   3.9988
   17    C  MulP   1.9982  1.9982 sum   3.9964
   18    C  MulP   1.9981  1.9981 sum   3.9963
   19    C  MulP   1.9853  1.9853 sum   3.9707
   20    C  MulP   1.9748  1.9748 sum   3.9495
     ..........
     ......

 Sum of MulP: up   =   255.50000 down          =   255.50000
              total=   511.00000 ideal(neutral)=   511.00000
<DFT>  Total Spin Moment (muB) =  0.000000000000
<DFT>  Mixing_weight= 0.030000000000
<DFT>  Uele   = -244.783953141253  dUele     =   0.912332418010
<DFT>  NormRD =    0.323217203669  Criterion =   0.000000010000

******************* MD= 1  SCF=18 *******************
<Poisson>  Poisson's equation using FFT...
<Set_Hamiltonian>  Hamiltonian matrix for VNA+dVH+Vxc...
<Band>  Solving the eigenvalue problem...
 KGrids1:  -0.43750  -0.31250  -0.18750  -0.06250   0.06250   0.18750   0.31250   0.43750 
 KGrids2:  -0.43750  -0.31250  -0.18750  -0.06250   0.06250   0.18750   0.31250   0.43750 
 KGrids3:   0.00000 
<Band_DFT>  Eigen, time=12.365665
<Band_DFT>  DM, time=0.000000
    1    C  MulP   1.9995  1.9995 sum   3.9990
    2    C  MulP   1.9993  1.9993 sum   3.9985
    3    C  MulP   1.9997  1.9997 sum   3.9994
    4    C  MulP   1.9994  1.9994 sum   3.9988
    5    C  MulP   1.9990  1.9990 sum   3.9981
    6    C  MulP   1.9991  1.9991 sum   3.9981
    7    C  MulP   1.9993  1.9993 sum   3.9987
    8    C  MulP   1.9987  1.9987 sum   3.9974
    9    C  MulP   2.0002  2.0002 sum   4.0004
   10    C  MulP   1.9991  1.9991 sum   3.9982
   11    C  MulP   1.9976  1.9976 sum   3.9952
   12    C  MulP   2.0009  2.0009 sum   4.0017
   13    C  MulP   1.9993  1.9993 sum   3.9986
   14    C  MulP   1.9993  1.9993 sum   3.9986
   15    C  MulP   1.9989  1.9989 sum   3.9978
   16    C  MulP   1.9994  1.9994 sum   3.9988
   17    C  MulP   1.9988  1.9988 sum   3.9976
   18    C  MulP   2.0029  2.0029 sum   4.0059
   19    C  MulP   1.9857  1.9857 sum   3.9713
   20    C  MulP   1.9722  1.9722 sum   3.9444
     ..........
     ......

 Sum of MulP: up   =   255.50000 down          =   255.50000
              total=   511.00000 ideal(neutral)=   511.00000
<DFT>  Total Spin Moment (muB) =  0.000000000000
<DFT>  Mixing_weight= 0.030000000000
<DFT>  Uele   = -246.145096380056  dUele     =   1.361143238803
<DFT>  NormRD =    0.950439740708  Criterion =   0.000000010000

******************* MD= 1  SCF=19 *******************
<Poisson>  Poisson's equation using FFT...
<Set_Hamiltonian>  Hamiltonian matrix for VNA+dVH+Vxc...
<Band>  Solving the eigenvalue problem...
 KGrids1:  -0.43750  -0.31250  -0.18750  -0.06250   0.06250   0.18750   0.31250   0.43750 
 KGrids2:  -0.43750  -0.31250  -0.18750  -0.06250   0.06250   0.18750   0.31250   0.43750 
 KGrids3:   0.00000 
<Band_DFT>  Eigen, time=12.368102
<Band_DFT>  DM, time=0.000001
    1    C  MulP   1.9996  1.9996 sum   3.9992
    2    C  MulP   1.9986  1.9986 sum   3.9971
    3    C  MulP   1.9996  1.9996 sum   3.9992
    4    C  MulP   1.9987  1.9987 sum   3.9975
    5    C  MulP   1.9993  1.9993 sum   3.9987
    6    C  MulP   1.9993  1.9993 sum   3.9985
    7    C  MulP   1.9996  1.9996 sum   3.9991
    8    C  MulP   1.9990  1.9990 sum   3.9981
    9    C  MulP   1.9998  1.9998 sum   3.9995
   10    C  MulP   1.9984  1.9984 sum   3.9968
   11    C  MulP   1.9972  1.9972 sum   3.9945
   12    C  MulP   1.9995  1.9995 sum   3.9991
   13    C  MulP   1.9988  1.9988 sum   3.9977
   14    C  MulP   1.9992  1.9992 sum   3.9983
   15    C  MulP   1.9991  1.9991 sum   3.9981
   16    C  MulP   1.9995  1.9995 sum   3.9990
   17    C  MulP   1.9983  1.9983 sum   3.9966
   18    C  MulP   1.9990  1.9990 sum   3.9980
   19    C  MulP   1.9823  1.9823 sum   3.9646
   20    C  MulP   1.9716  1.9716 sum   3.9433
     ..........
     ......

 Sum of MulP: up   =   255.50000 down          =   255.50000
              total=   511.00000 ideal(neutral)=   511.00000
<DFT>  Total Spin Moment (muB) =  0.000000000000
<DFT>  Mixing_weight= 0.030000000000
<DFT>  Uele   = -246.535034472699  dUele     =   0.389938092643
<DFT>  NormRD =    0.084974259898  Criterion =   0.000000010000

******************* MD= 1  SCF=20 *******************
<Poisson>  Poisson's equation using FFT...
<Set_Hamiltonian>  Hamiltonian matrix for VNA+dVH+Vxc...
<Band>  Solving the eigenvalue problem...
 KGrids1:  -0.43750  -0.31250  -0.18750  -0.06250   0.06250   0.18750   0.31250   0.43750 
 KGrids2:  -0.43750  -0.31250  -0.18750  -0.06250   0.06250   0.18750   0.31250   0.43750 
 KGrids3:   0.00000 
<Band_DFT>  Eigen, time=12.346929
<Band_DFT>  DM, time=0.000000
    1    C  MulP   1.9995  1.9995 sum   3.9990
    2    C  MulP   1.9986  1.9986 sum   3.9972
    3    C  MulP   1.9995  1.9995 sum   3.9989
    4    C  MulP   1.9986  1.9986 sum   3.9972
    5    C  MulP   1.9993  1.9993 sum   3.9985
    6    C  MulP   1.9991  1.9991 sum   3.9983
    7    C  MulP   1.9995  1.9995 sum   3.9989
    8    C  MulP   1.9990  1.9990 sum   3.9980
    9    C  MulP   1.9999  1.9999 sum   3.9998
   10    C  MulP   1.9987  1.9987 sum   3.9974
   11    C  MulP   1.9972  1.9972 sum   3.9944
   12    C  MulP   1.9995  1.9995 sum   3.9990
   13    C  MulP   1.9985  1.9985 sum   3.9970
   14    C  MulP   1.9991  1.9991 sum   3.9981
   15    C  MulP   1.9991  1.9991 sum   3.9981
   16    C  MulP   1.9994  1.9994 sum   3.9989
   17    C  MulP   1.9986  1.9986 sum   3.9971
   18    C  MulP   2.0005  2.0005 sum   4.0011
   19    C  MulP   1.9838  1.9838 sum   3.9676
   20    C  MulP   1.9713  1.9713 sum   3.9426
     ..........
     ......

 Sum of MulP: up   =   255.50000 down          =   255.50000
              total=   511.00000 ideal(neutral)=   511.00000
<DFT>  Total Spin Moment (muB) =  0.000000000000
<DFT>  Mixing_weight= 0.030000000000
<DFT>  Uele   = -246.698870244895  dUele     =   0.163835772196
<DFT>  NormRD =    0.151884142209  Criterion =   0.000000010000

******************* MD= 1  SCF=21 *******************
<Poisson>  Poisson's equation using FFT...
<Set_Hamiltonian>  Hamiltonian matrix for VNA+dVH+Vxc...
<Band>  Solving the eigenvalue problem...
 KGrids1:  -0.43750  -0.31250  -0.18750  -0.06250   0.06250   0.18750   0.31250   0.43750 
 KGrids2:  -0.43750  -0.31250  -0.18750  -0.06250   0.06250   0.18750   0.31250   0.43750 
 KGrids3:   0.00000 
<Band_DFT>  Eigen, time=12.345536
<Band_DFT>  DM, time=0.000000
    1    C  MulP   1.9994  1.9994 sum   3.9988
    2    C  MulP   1.9984  1.9984 sum   3.9968
    3    C  MulP   1.9994  1.9994 sum   3.9988
    4    C  MulP   1.9988  1.9988 sum   3.9976
    5    C  MulP   1.9990  1.9990 sum   3.9980
    6    C  MulP   1.9990  1.9990 sum   3.9981
    7    C  MulP   1.9993  1.9993 sum   3.9986
    8    C  MulP   1.9987  1.9987 sum   3.9973
    9    C  MulP   1.9997  1.9997 sum   3.9994
   10    C  MulP   1.9983  1.9983 sum   3.9965
   11    C  MulP   1.9970  1.9970 sum   3.9940
   12    C  MulP   2.0002  2.0002 sum   4.0004
   13    C  MulP   1.9990  1.9990 sum   3.9980
   14    C  MulP   1.9991  1.9991 sum   3.9983
   15    C  MulP   1.9988  1.9988 sum   3.9977
   16    C  MulP   1.9993  1.9993 sum   3.9987
   17    C  MulP   1.9983  1.9983 sum   3.9966
   18    C  MulP   1.9992  1.9992 sum   3.9983
   19    C  MulP   1.9822  1.9822 sum   3.9644
   20    C  MulP   1.9724  1.9724 sum   3.9448
     ..........
     ......

 Sum of MulP: up   =   255.50000 down          =   255.50000
              total=   511.00000 ideal(neutral)=   511.00000
<DFT>  Total Spin Moment (muB) =  0.000000000000
<DFT>  Mixing_weight= 0.030000000000
<DFT>  Uele   = -246.751322025889  dUele     =   0.052451780994
<DFT>  NormRD =    0.089352559093  Criterion =   0.000000010000

******************* MD= 1  SCF=22 *******************
<Poisson>  Poisson's equation using FFT...
<Set_Hamiltonian>  Hamiltonian matrix for VNA+dVH+Vxc...
<Band>  Solving the eigenvalue problem...
 KGrids1:  -0.43750  -0.31250  -0.18750  -0.06250   0.06250   0.18750   0.31250   0.43750 
 KGrids2:  -0.43750  -0.31250  -0.18750  -0.06250   0.06250   0.18750   0.31250   0.43750 
 KGrids3:   0.00000 
<Band_DFT>  Eigen, time=12.352371
<Band_DFT>  DM, time=0.000000
    1    C  MulP   1.9997  1.9997 sum   3.9993
    2    C  MulP   1.9987  1.9987 sum   3.9975
    3    C  MulP   1.9996  1.9996 sum   3.9993
    4    C  MulP   1.9990  1.9990 sum   3.9981
    5    C  MulP   1.9993  1.9993 sum   3.9987
    6    C  MulP   1.9993  1.9993 sum   3.9986
    7    C  MulP   1.9996  1.9996 sum   3.9993
    8    C  MulP   1.9990  1.9990 sum   3.9981
    9    C  MulP   1.9999  1.9999 sum   3.9998
   10    C  MulP   1.9986  1.9986 sum   3.9972
   11    C  MulP   1.9971  1.9971 sum   3.9942
   12    C  MulP   2.0001  2.0001 sum   4.0002
   13    C  MulP   1.9990  1.9990 sum   3.9980
   14    C  MulP   1.9993  1.9993 sum   3.9986
   15    C  MulP   1.9991  1.9991 sum   3.9981
   16    C  MulP   1.9995  1.9995 sum   3.9991
   17    C  MulP   1.9984  1.9984 sum   3.9968
   18    C  MulP   1.9998  1.9998 sum   3.9996
   19    C  MulP   1.9825  1.9825 sum   3.9649
   20    C  MulP   1.9722  1.9722 sum   3.9443
     ..........
     ......

 Sum of MulP: up   =   255.50000 down          =   255.50000
              total=   511.00000 ideal(neutral)=   511.00000
<DFT>  Total Spin Moment (muB) =  0.000000000000
<DFT>  Mixing_weight= 0.030000000000
<DFT>  Uele   = -246.939642591554  dUele     =   0.188320565665
<DFT>  NormRD =    0.061577403468  Criterion =   0.000000010000

******************* MD= 1  SCF=23 *******************
<Poisson>  Poisson's equation using FFT...
<Set_Hamiltonian>  Hamiltonian matrix for VNA+dVH+Vxc...
<Band>  Solving the eigenvalue problem...
 KGrids1:  -0.43750  -0.31250  -0.18750  -0.06250   0.06250   0.18750   0.31250   0.43750 
 KGrids2:  -0.43750  -0.31250  -0.18750  -0.06250   0.06250   0.18750   0.31250   0.43750 
 KGrids3:   0.00000 
<Band_DFT>  Eigen, time=12.399550
<Band_DFT>  DM, time=0.000000
    1    C  MulP   1.9996  1.9996 sum   3.9992
    2    C  MulP   1.9986  1.9986 sum   3.9972
    3    C  MulP   1.9996  1.9996 sum   3.9991
    4    C  MulP   1.9987  1.9987 sum   3.9975
    5    C  MulP   1.9993  1.9993 sum   3.9987
    6    C  MulP   1.9993  1.9993 sum   3.9986
    7    C  MulP   1.9996  1.9996 sum   3.9991
    8    C  MulP   1.9990  1.9990 sum   3.9981
    9    C  MulP   1.9998  1.9998 sum   3.9995
   10    C  MulP   1.9985  1.9985 sum   3.9969
   11    C  MulP   1.9971  1.9971 sum   3.9942
   12    C  MulP   1.9996  1.9996 sum   3.9992
   13    C  MulP   1.9987  1.9987 sum   3.9975
   14    C  MulP   1.9992  1.9992 sum   3.9984
   15    C  MulP   1.9991  1.9991 sum   3.9981
   16    C  MulP   1.9995  1.9995 sum   3.9990
   17    C  MulP   1.9983  1.9983 sum   3.9966
   18    C  MulP   1.9991  1.9991 sum   3.9981
   19    C  MulP   1.9822  1.9822 sum   3.9643
   20    C  MulP   1.9717  1.9717 sum   3.9433
     ..........
     ......

 Sum of MulP: up   =   255.50000 down          =   255.50000
              total=   511.00000 ideal(neutral)=   511.00000
<DFT>  Total Spin Moment (muB) =  0.000000000000
<DFT>  Mixing_weight= 0.030000000000
<DFT>  Uele   = -246.990893834133  dUele     =   0.051251242579
<DFT>  NormRD =    0.045742860718  Criterion =   0.000000010000

******************* MD= 1  SCF=24 *******************
<Poisson>  Poisson's equation using FFT...
<Set_Hamiltonian>  Hamiltonian matrix for VNA+dVH+Vxc...
<Band>  Solving the eigenvalue problem...
 KGrids1:  -0.43750  -0.31250  -0.18750  -0.06250   0.06250   0.18750   0.31250   0.43750 
 KGrids2:  -0.43750  -0.31250  -0.18750  -0.06250   0.06250   0.18750   0.31250   0.43750 
 KGrids3:   0.00000 
<Band_DFT>  Eigen, time=12.348486
<Band_DFT>  DM, time=0.000000
    1    C  MulP   1.9994  1.9994 sum   3.9987
    2    C  MulP   1.9984  1.9984 sum   3.9968
    3    C  MulP   1.9994  1.9994 sum   3.9987
    4    C  MulP   1.9986  1.9986 sum   3.9972
    5    C  MulP   1.9991  1.9991 sum   3.9981
    6    C  MulP   1.9990  1.9990 sum   3.9981
    7    C  MulP   1.9993  1.9993 sum   3.9986
    8    C  MulP   1.9988  1.9988 sum   3.9975
    9    C  MulP   1.9997  1.9997 sum   3.9994
   10    C  MulP   1.9984  1.9984 sum   3.9969
   11    C  MulP   1.9971  1.9971 sum   3.9942
   12    C  MulP   1.9998  1.9998 sum   3.9997
   13    C  MulP   1.9988  1.9988 sum   3.9976
   14    C  MulP   1.9991  1.9991 sum   3.9981
   15    C  MulP   1.9989  1.9989 sum   3.9978
   16    C  MulP   1.9993  1.9993 sum   3.9987
   17    C  MulP   1.9983  1.9983 sum   3.9966
   18    C  MulP   1.9994  1.9994 sum   3.9988
   19    C  MulP   1.9831  1.9831 sum   3.9662
   20    C  MulP   1.9722  1.9722 sum   3.9443
     ..........
     ......

 Sum of MulP: up   =   255.50000 down          =   255.50000
              total=   511.00000 ideal(neutral)=   511.00000
<DFT>  Total Spin Moment (muB) =  0.000000000000
<DFT>  Mixing_weight= 0.030000000000
<DFT>  Uele   = -247.053363710585  dUele     =   0.062469876452
<DFT>  NormRD =    0.018031039747  Criterion =   0.000000010000

******************* MD= 1  SCF=25 *******************
<Poisson>  Poisson's equation using FFT...
<Set_Hamiltonian>  Hamiltonian matrix for VNA+dVH+Vxc...
<Band>  Solving the eigenvalue problem...
 KGrids1:  -0.43750  -0.31250  -0.18750  -0.06250   0.06250   0.18750   0.31250   0.43750 
 KGrids2:  -0.43750  -0.31250  -0.18750  -0.06250   0.06250   0.18750   0.31250   0.43750 
 KGrids3:   0.00000 
<Band_DFT>  Eigen, time=12.331944
<Band_DFT>  DM, time=0.000000
    1    C  MulP   1.9995  1.9995 sum   3.9990
    2    C  MulP   1.9986  1.9986 sum   3.9971
    3    C  MulP   1.9995  1.9995 sum   3.9990
    4    C  MulP   1.9989  1.9989 sum   3.9977
    5    C  MulP   1.9992  1.9992 sum   3.9984
    6    C  MulP   1.9991  1.9991 sum   3.9983
    7    C  MulP   1.9994  1.9994 sum   3.9988
    8    C  MulP   1.9988  1.9988 sum   3.9977
    9    C  MulP   1.9998  1.9998 sum   3.9996
   10    C  MulP   1.9985  1.9985 sum   3.9969
   11    C  MulP   1.9971  1.9971 sum   3.9942
   12    C  MulP   2.0001  2.0001 sum   4.0002
   13    C  MulP   1.9989  1.9989 sum   3.9978
   14    C  MulP   1.9992  1.9992 sum   3.9984
   15    C  MulP   1.9990  1.9990 sum   3.9979
   16    C  MulP   1.9994  1.9994 sum   3.9988
   17    C  MulP   1.9984  1.9984 sum   3.9968
   18    C  MulP   1.9995  1.9995 sum   3.9989
   19    C  MulP   1.9828  1.9828 sum   3.9655
   20    C  MulP   1.9721  1.9721 sum   3.9443
     ..........
     ......

 Sum of MulP: up   =   255.50000 down          =   255.50000
              total=   511.00000 ideal(neutral)=   511.00000
<DFT>  Total Spin Moment (muB) =  0.000000000000
<DFT>  Mixing_weight= 0.030000000000
<DFT>  Uele   = -247.084348945399  dUele     =   0.030985234814
<DFT>  NormRD =    0.007872374574  Criterion =   0.000000010000

******************* MD= 1  SCF=26 *******************
<Poisson>  Poisson's equation using FFT...
<Set_Hamiltonian>  Hamiltonian matrix for VNA+dVH+Vxc...
<Band>  Solving the eigenvalue problem...
 KGrids1:  -0.43750  -0.31250  -0.18750  -0.06250   0.06250   0.18750   0.31250   0.43750 
 KGrids2:  -0.43750  -0.31250  -0.18750  -0.06250   0.06250   0.18750   0.31250   0.43750 
 KGrids3:   0.00000 
<Band_DFT>  Eigen, time=12.374951
<Band_DFT>  DM, time=0.000000
    1    C  MulP   1.9995  1.9995 sum   3.9990
    2    C  MulP   1.9985  1.9985 sum   3.9971
    3    C  MulP   1.9995  1.9995 sum   3.9989
    4    C  MulP   1.9988  1.9988 sum   3.9975
    5    C  MulP   1.9992  1.9992 sum   3.9984
    6    C  MulP   1.9992  1.9992 sum   3.9984
    7    C  MulP   1.9995  1.9995 sum   3.9989
    8    C  MulP   1.9989  1.9989 sum   3.9978
    9    C  MulP   1.9998  1.9998 sum   3.9996
   10    C  MulP   1.9985  1.9985 sum   3.9970
   11    C  MulP   1.9971  1.9971 sum   3.9941
   12    C  MulP   1.9999  1.9999 sum   3.9998
   13    C  MulP   1.9988  1.9988 sum   3.9976
   14    C  MulP   1.9991  1.9991 sum   3.9983
   15    C  MulP   1.9990  1.9990 sum   3.9980
   16    C  MulP   1.9994  1.9994 sum   3.9989
   17    C  MulP   1.9984  1.9984 sum   3.9968
   18    C  MulP   1.9996  1.9996 sum   3.9991
   19    C  MulP   1.9828  1.9828 sum   3.9656
   20    C  MulP   1.9721  1.9721 sum   3.9441
     ..........
     ......

 Sum of MulP: up   =   255.50000 down          =   255.50000
              total=   511.00000 ideal(neutral)=   511.00000
<DFT>  Total Spin Moment (muB) =  0.000000000000
<DFT>  Mixing_weight= 0.030000000000
<DFT>  Uele   = -247.089946622124  dUele     =   0.005597676725
<DFT>  NormRD =    0.004979120174  Criterion =   0.000000010000

******************* MD= 1  SCF=27 *******************
<Poisson>  Poisson's equation using FFT...
<Set_Hamiltonian>  Hamiltonian matrix for VNA+dVH+Vxc...
<Band>  Solving the eigenvalue problem...
 KGrids1:  -0.43750  -0.31250  -0.18750  -0.06250   0.06250   0.18750   0.31250   0.43750 
 KGrids2:  -0.43750  -0.31250  -0.18750  -0.06250   0.06250   0.18750   0.31250   0.43750 
 KGrids3:   0.00000 
<Band_DFT>  Eigen, time=12.360580
<Band_DFT>  DM, time=0.000000
    1    C  MulP   1.9995  1.9995 sum   3.9990
    2    C  MulP   1.9985  1.9985 sum   3.9971
    3    C  MulP   1.9995  1.9995 sum   3.9990
    4    C  MulP   1.9988  1.9988 sum   3.9976
    5    C  MulP   1.9992  1.9992 sum   3.9984
    6    C  MulP   1.9991  1.9991 sum   3.9983
    7    C  MulP   1.9994  1.9994 sum   3.9989
    8    C  MulP   1.9988  1.9988 sum   3.9977
    9    C  MulP   1.9998  1.9998 sum   3.9996
   10    C  MulP   1.9985  1.9985 sum   3.9970
   11    C  MulP   1.9971  1.9971 sum   3.9942
   12    C  MulP   2.0000  2.0000 sum   4.0000
   13    C  MulP   1.9989  1.9989 sum   3.9977
   14    C  MulP   1.9992  1.9992 sum   3.9984
   15    C  MulP   1.9990  1.9990 sum   3.9979
   16    C  MulP   1.9994  1.9994 sum   3.9988
   17    C  MulP   1.9984  1.9984 sum   3.9967
   18    C  MulP   1.9995  1.9995 sum   3.9991
   19    C  MulP   1.9828  1.9828 sum   3.9656
   20    C  MulP   1.9721  1.9721 sum   3.9443
     ..........
     ......

 Sum of MulP: up   =   255.50000 down          =   255.50000
              total=   511.00000 ideal(neutral)=   511.00000
<DFT>  Total Spin Moment (muB) =  0.000000000000
<DFT>  Mixing_weight= 0.030000000000
<DFT>  Uele   = -247.092080223191  dUele     =   0.002133601068
<DFT>  NormRD =    0.002656535407  Criterion =   0.000000010000

******************* MD= 1  SCF=28 *******************
<Poisson>  Poisson's equation using FFT...
<Set_Hamiltonian>  Hamiltonian matrix for VNA+dVH+Vxc...
<Band>  Solving the eigenvalue problem...
 KGrids1:  -0.43750  -0.31250  -0.18750  -0.06250   0.06250   0.18750   0.31250   0.43750 
 KGrids2:  -0.43750  -0.31250  -0.18750  -0.06250   0.06250   0.18750   0.31250   0.43750 
 KGrids3:   0.00000 
<Band_DFT>  Eigen, time=12.368846
<Band_DFT>  DM, time=0.000001
    1    C  MulP   1.9995  1.9995 sum   3.9990
    2    C  MulP   1.9986  1.9986 sum   3.9971
    3    C  MulP   1.9995  1.9995 sum   3.9990
    4    C  MulP   1.9988  1.9988 sum   3.9976
    5    C  MulP   1.9992  1.9992 sum   3.9984
    6    C  MulP   1.9992  1.9992 sum   3.9983
    7    C  MulP   1.9994  1.9994 sum   3.9989
    8    C  MulP   1.9989  1.9989 sum   3.9978
    9    C  MulP   1.9998  1.9998 sum   3.9996
   10    C  MulP   1.9985  1.9985 sum   3.9970
   11    C  MulP   1.9971  1.9971 sum   3.9942
   12    C  MulP   2.0000  2.0000 sum   4.0000
   13    C  MulP   1.9988  1.9988 sum   3.9977
   14    C  MulP   1.9992  1.9992 sum   3.9983
   15    C  MulP   1.9990  1.9990 sum   3.9979
   16    C  MulP   1.9994  1.9994 sum   3.9989
   17    C  MulP   1.9984  1.9984 sum   3.9968
   18    C  MulP   1.9996  1.9996 sum   3.9991
   19    C  MulP   1.9829  1.9829 sum   3.9657
   20    C  MulP   1.9721  1.9721 sum   3.9442
     ..........
     ......

 Sum of MulP: up   =   255.50000 down          =   255.50000
              total=   511.00000 ideal(neutral)=   511.00000
<DFT>  Total Spin Moment (muB) =  0.000000000000
<DFT>  Mixing_weight= 0.030000000000
<DFT>  Uele   = -247.092582417964  dUele     =   0.000502194773
<DFT>  NormRD =    0.001311105388  Criterion =   0.000000010000

******************* MD= 1  SCF=29 *******************
<Poisson>  Poisson's equation using FFT...
<Set_Hamiltonian>  Hamiltonian matrix for VNA+dVH+Vxc...
<Band>  Solving the eigenvalue problem...
 KGrids1:  -0.43750  -0.31250  -0.18750  -0.06250   0.06250   0.18750   0.31250   0.43750 
 KGrids2:  -0.43750  -0.31250  -0.18750  -0.06250   0.06250   0.18750   0.31250   0.43750 
 KGrids3:   0.00000 
<Band_DFT>  Eigen, time=12.374346
<Band_DFT>  DM, time=0.000000
    1    C  MulP   1.9995  1.9995 sum   3.9990
    2    C  MulP   1.9986  1.9986 sum   3.9971
    3    C  MulP   1.9995  1.9995 sum   3.9990
    4    C  MulP   1.9988  1.9988 sum   3.9976
    5    C  MulP   1.9992  1.9992 sum   3.9984
    6    C  MulP   1.9992  1.9992 sum   3.9983
    7    C  MulP   1.9995  1.9995 sum   3.9989
    8    C  MulP   1.9989  1.9989 sum   3.9978
    9    C  MulP   1.9998  1.9998 sum   3.9996
   10    C  MulP   1.9985  1.9985 sum   3.9970
   11    C  MulP   1.9971  1.9971 sum   3.9942
   12    C  MulP   2.0000  2.0000 sum   4.0000
   13    C  MulP   1.9988  1.9988 sum   3.9977
   14    C  MulP   1.9992  1.9992 sum   3.9983
   15    C  MulP   1.9990  1.9990 sum   3.9979
   16    C  MulP   1.9994  1.9994 sum   3.9988
   17    C  MulP   1.9984  1.9984 sum   3.9968
   18    C  MulP   1.9996  1.9996 sum   3.9991
   19    C  MulP   1.9829  1.9829 sum   3.9657
   20    C  MulP   1.9721  1.9721 sum   3.9442
     ..........
     ......

 Sum of MulP: up   =   255.50000 down          =   255.50000
              total=   511.00000 ideal(neutral)=   511.00000
<DFT>  Total Spin Moment (muB) =  0.000000000000
<DFT>  Mixing_weight= 0.030000000000
<DFT>  Uele   = -247.092546011191  dUele     =   0.000036406772
<DFT>  NormRD =    0.000967050033  Criterion =   0.000000010000

******************* MD= 1  SCF=30 *******************
<Poisson>  Poisson's equation using FFT...
<Set_Hamiltonian>  Hamiltonian matrix for VNA+dVH+Vxc...
<Band>  Solving the eigenvalue problem...
 KGrids1:  -0.43750  -0.31250  -0.18750  -0.06250   0.06250   0.18750   0.31250   0.43750 
 KGrids2:  -0.43750  -0.31250  -0.18750  -0.06250   0.06250   0.18750   0.31250   0.43750 
 KGrids3:   0.00000 
<Band_DFT>  Eigen, time=12.363618
<Band_DFT>  DM, time=0.000001
    1    C  MulP   1.9995  1.9995 sum   3.9990
    2    C  MulP   1.9986  1.9986 sum   3.9971
    3    C  MulP   1.9995  1.9995 sum   3.9990
    4    C  MulP   1.9988  1.9988 sum   3.9976
    5    C  MulP   1.9992  1.9992 sum   3.9984
    6    C  MulP   1.9992  1.9992 sum   3.9983
    7    C  MulP   1.9994  1.9994 sum   3.9989
    8    C  MulP   1.9989  1.9989 sum   3.9977
    9    C  MulP   1.9998  1.9998 sum   3.9996
   10    C  MulP   1.9985  1.9985 sum   3.9970
   11    C  MulP   1.9971  1.9971 sum   3.9942
   12    C  MulP   2.0000  2.0000 sum   4.0000
   13    C  MulP   1.9988  1.9988 sum   3.9977
   14    C  MulP   1.9992  1.9992 sum   3.9983
   15    C  MulP   1.9990  1.9990 sum   3.9979
   16    C  MulP   1.9994  1.9994 sum   3.9988
   17    C  MulP   1.9984  1.9984 sum   3.9968
   18    C  MulP   1.9996  1.9996 sum   3.9991
   19    C  MulP   1.9829  1.9829 sum   3.9657
   20    C  MulP   1.9721  1.9721 sum   3.9442
     ..........
     ......

 Sum of MulP: up   =   255.50000 down          =   255.50000
              total=   511.00000 ideal(neutral)=   511.00000
<DFT>  Total Spin Moment (muB) =  0.000000000000
<DFT>  Mixing_weight= 0.030000000000
<DFT>  Uele   = -247.092571868945  dUele     =   0.000025857754
<DFT>  NormRD =    0.000673950388  Criterion =   0.000000010000

******************* MD= 1  SCF=31 *******************
<Poisson>  Poisson's equation using FFT...
<Set_Hamiltonian>  Hamiltonian matrix for VNA+dVH+Vxc...
<Band>  Solving the eigenvalue problem...
 KGrids1:  -0.43750  -0.31250  -0.18750  -0.06250   0.06250   0.18750   0.31250   0.43750 
 KGrids2:  -0.43750  -0.31250  -0.18750  -0.06250   0.06250   0.18750   0.31250   0.43750 
 KGrids3:   0.00000 
<Band_DFT>  Eigen, time=12.406369
<Band_DFT>  DM, time=0.000000
    1    C  MulP   1.9995  1.9995 sum   3.9990
    2    C  MulP   1.9986  1.9986 sum   3.9971
    3    C  MulP   1.9995  1.9995 sum   3.9990
    4    C  MulP   1.9988  1.9988 sum   3.9976
    5    C  MulP   1.9992  1.9992 sum   3.9984
    6    C  MulP   1.9992  1.9992 sum   3.9983
    7    C  MulP   1.9995  1.9995 sum   3.9989
    8    C  MulP   1.9989  1.9989 sum   3.9978
    9    C  MulP   1.9998  1.9998 sum   3.9996
   10    C  MulP   1.9985  1.9985 sum   3.9970
   11    C  MulP   1.9971  1.9971 sum   3.9942
   12    C  MulP   2.0000  2.0000 sum   4.0000
   13    C  MulP   1.9988  1.9988 sum   3.9977
   14    C  MulP   1.9992  1.9992 sum   3.9983
   15    C  MulP   1.9990  1.9990 sum   3.9979
   16    C  MulP   1.9994  1.9994 sum   3.9989
   17    C  MulP   1.9984  1.9984 sum   3.9968
   18    C  MulP   1.9996  1.9996 sum   3.9991
   19    C  MulP   1.9829  1.9829 sum   3.9657
   20    C  MulP   1.9721  1.9721 sum   3.9442
     ..........
     ......

 Sum of MulP: up   =   255.50000 down          =   255.50000
              total=   511.00000 ideal(neutral)=   511.00000
<DFT>  Total Spin Moment (muB) =  0.000000000000
<DFT>  Mixing_weight= 0.030000000000
<DFT>  Uele   = -247.092612628495  dUele     =   0.000040759550
<DFT>  NormRD =    0.000245311696  Criterion =   0.000000010000

******************* MD= 1  SCF=32 *******************
<Poisson>  Poisson's equation using FFT...
<Set_Hamiltonian>  Hamiltonian matrix for VNA+dVH+Vxc...
<Band>  Solving the eigenvalue problem...
 KGrids1:  -0.43750  -0.31250  -0.18750  -0.06250   0.06250   0.18750   0.31250   0.43750 
 KGrids2:  -0.43750  -0.31250  -0.18750  -0.06250   0.06250   0.18750   0.31250   0.43750 
 KGrids3:   0.00000 
<Band_DFT>  Eigen, time=12.364792
<Band_DFT>  DM, time=0.000001
    1    C  MulP   1.9995  1.9995 sum   3.9990
    2    C  MulP   1.9986  1.9986 sum   3.9971
    3    C  MulP   1.9995  1.9995 sum   3.9990
    4    C  MulP   1.9988  1.9988 sum   3.9976
    5    C  MulP   1.9992  1.9992 sum   3.9984
    6    C  MulP   1.9992  1.9992 sum   3.9983
    7    C  MulP   1.9995  1.9995 sum   3.9989
    8    C  MulP   1.9989  1.9989 sum   3.9977
    9    C  MulP   1.9998  1.9998 sum   3.9996
   10    C  MulP   1.9985  1.9985 sum   3.9970
   11    C  MulP   1.9971  1.9971 sum   3.9942
   12    C  MulP   2.0000  2.0000 sum   4.0000
   13    C  MulP   1.9988  1.9988 sum   3.9977
   14    C  MulP   1.9992  1.9992 sum   3.9983
   15    C  MulP   1.9990  1.9990 sum   3.9979
   16    C  MulP   1.9994  1.9994 sum   3.9988
   17    C  MulP   1.9984  1.9984 sum   3.9968
   18    C  MulP   1.9996  1.9996 sum   3.9991
   19    C  MulP   1.9829  1.9829 sum   3.9657
   20    C  MulP   1.9721  1.9721 sum   3.9442
     ..........
     ......

 Sum of MulP: up   =   255.50000 down          =   255.50000
              total=   511.00000 ideal(neutral)=   511.00000
<DFT>  Total Spin Moment (muB) =  0.000000000000
<DFT>  Mixing_weight= 0.030000000000
<DFT>  Uele   = -247.092716960353  dUele     =   0.000104331858
<DFT>  NormRD =    0.000183064047  Criterion =   0.000000010000

******************* MD= 1  SCF=33 *******************
<Poisson>  Poisson's equation using FFT...
<Set_Hamiltonian>  Hamiltonian matrix for VNA+dVH+Vxc...
<Band>  Solving the eigenvalue problem...
 KGrids1:  -0.43750  -0.31250  -0.18750  -0.06250   0.06250   0.18750   0.31250   0.43750 
 KGrids2:  -0.43750  -0.31250  -0.18750  -0.06250   0.06250   0.18750   0.31250   0.43750 
 KGrids3:   0.00000 
<Band_DFT>  Eigen, time=12.374480
<Band_DFT>  DM, time=0.000000
    1    C  MulP   1.9995  1.9995 sum   3.9990
    2    C  MulP   1.9986  1.9986 sum   3.9971
    3    C  MulP   1.9995  1.9995 sum   3.9990
    4    C  MulP   1.9988  1.9988 sum   3.9976
    5    C  MulP   1.9992  1.9992 sum   3.9984
    6    C  MulP   1.9992  1.9992 sum   3.9983
    7    C  MulP   1.9995  1.9995 sum   3.9989
    8    C  MulP   1.9989  1.9989 sum   3.9977
    9    C  MulP   1.9998  1.9998 sum   3.9996
   10    C  MulP   1.9985  1.9985 sum   3.9970
   11    C  MulP   1.9971  1.9971 sum   3.9942
   12    C  MulP   2.0000  2.0000 sum   4.0000
   13    C  MulP   1.9988  1.9988 sum   3.9977
   14    C  MulP   1.9992  1.9992 sum   3.9983
   15    C  MulP   1.9990  1.9990 sum   3.9979
   16    C  MulP   1.9994  1.9994 sum   3.9989
   17    C  MulP   1.9984  1.9984 sum   3.9968
   18    C  MulP   1.9996  1.9996 sum   3.9991
   19    C  MulP   1.9829  1.9829 sum   3.9657
   20    C  MulP   1.9721  1.9721 sum   3.9442
     ..........
     ......

 Sum of MulP: up   =   255.50000 down          =   255.50000
              total=   511.00000 ideal(neutral)=   511.00000
<DFT>  Total Spin Moment (muB) =  0.000000000000
<DFT>  Mixing_weight= 0.030000000000
<DFT>  Uele   = -247.092767685547  dUele     =   0.000050725195
<DFT>  NormRD =    0.000103549833  Criterion =   0.000000010000

******************* MD= 1  SCF=34 *******************
<Poisson>  Poisson's equation using FFT...
<Set_Hamiltonian>  Hamiltonian matrix for VNA+dVH+Vxc...
<Band>  Solving the eigenvalue problem...
 KGrids1:  -0.43750  -0.31250  -0.18750  -0.06250   0.06250   0.18750   0.31250   0.43750 
 KGrids2:  -0.43750  -0.31250  -0.18750  -0.06250   0.06250   0.18750   0.31250   0.43750 
 KGrids3:   0.00000 
<Band_DFT>  Eigen, time=12.379415
<Band_DFT>  DM, time=0.000000
    1    C  MulP   1.9995  1.9995 sum   3.9990
    2    C  MulP   1.9986  1.9986 sum   3.9971
    3    C  MulP   1.9995  1.9995 sum   3.9990
    4    C  MulP   1.9988  1.9988 sum   3.9976
    5    C  MulP   1.9992  1.9992 sum   3.9984
    6    C  MulP   1.9992  1.9992 sum   3.9983
    7    C  MulP   1.9995  1.9995 sum   3.9989
    8    C  MulP   1.9989  1.9989 sum   3.9977
    9    C  MulP   1.9998  1.9998 sum   3.9996
   10    C  MulP   1.9985  1.9985 sum   3.9970
   11    C  MulP   1.9971  1.9971 sum   3.9942
   12    C  MulP   2.0000  2.0000 sum   4.0000
   13    C  MulP   1.9988  1.9988 sum   3.9977
   14    C  MulP   1.9992  1.9992 sum   3.9983
   15    C  MulP   1.9990  1.9990 sum   3.9979
   16    C  MulP   1.9994  1.9994 sum   3.9989
   17    C  MulP   1.9984  1.9984 sum   3.9968
   18    C  MulP   1.9996  1.9996 sum   3.9991
   19    C  MulP   1.9829  1.9829 sum   3.9657
   20    C  MulP   1.9721  1.9721 sum   3.9442
     ..........
     ......

 Sum of MulP: up   =   255.50000 down          =   255.50000
              total=   511.00000 ideal(neutral)=   511.00000
<DFT>  Total Spin Moment (muB) =  0.000000000000
<DFT>  Mixing_weight= 0.030000000000
<DFT>  Uele   = -247.092797158723  dUele     =   0.000029473176
<DFT>  NormRD =    0.000045083302  Criterion =   0.000000010000

******************* MD= 1  SCF=35 *******************
<Poisson>  Poisson's equation using FFT...
<Set_Hamiltonian>  Hamiltonian matrix for VNA+dVH+Vxc...
<Band>  Solving the eigenvalue problem...
 KGrids1:  -0.43750  -0.31250  -0.18750  -0.06250   0.06250   0.18750   0.31250   0.43750 
 KGrids2:  -0.43750  -0.31250  -0.18750  -0.06250   0.06250   0.18750   0.31250   0.43750 
 KGrids3:   0.00000 
<Band_DFT>  Eigen, time=12.369052
<Band_DFT>  DM, time=0.000000
    1    C  MulP   1.9995  1.9995 sum   3.9990
    2    C  MulP   1.9986  1.9986 sum   3.9971
    3    C  MulP   1.9995  1.9995 sum   3.9990
    4    C  MulP   1.9988  1.9988 sum   3.9976
    5    C  MulP   1.9992  1.9992 sum   3.9984
    6    C  MulP   1.9992  1.9992 sum   3.9983
    7    C  MulP   1.9995  1.9995 sum   3.9989
    8    C  MulP   1.9989  1.9989 sum   3.9977
    9    C  MulP   1.9998  1.9998 sum   3.9996
   10    C  MulP   1.9985  1.9985 sum   3.9970
   11    C  MulP   1.9971  1.9971 sum   3.9942
   12    C  MulP   2.0000  2.0000 sum   4.0000
   13    C  MulP   1.9988  1.9988 sum   3.9977
   14    C  MulP   1.9992  1.9992 sum   3.9983
   15    C  MulP   1.9990  1.9990 sum   3.9979
   16    C  MulP   1.9994  1.9994 sum   3.9989
   17    C  MulP   1.9984  1.9984 sum   3.9968
   18    C  MulP   1.9996  1.9996 sum   3.9991
   19    C  MulP   1.9829  1.9829 sum   3.9657
   20    C  MulP   1.9721  1.9721 sum   3.9442
     ..........
     ......

 Sum of MulP: up   =   255.50000 down          =   255.50000
              total=   511.00000 ideal(neutral)=   511.00000
<DFT>  Total Spin Moment (muB) =  0.000000000000
<DFT>  Mixing_weight= 0.030000000000
<DFT>  Uele   = -247.092813646876  dUele     =   0.000016488153
<DFT>  NormRD =    0.000025428809  Criterion =   0.000000010000

******************* MD= 1  SCF=36 *******************
<Poisson>  Poisson's equation using FFT...
<Set_Hamiltonian>  Hamiltonian matrix for VNA+dVH+Vxc...
<Band>  Solving the eigenvalue problem...
 KGrids1:  -0.43750  -0.31250  -0.18750  -0.06250   0.06250   0.18750   0.31250   0.43750 
 KGrids2:  -0.43750  -0.31250  -0.18750  -0.06250   0.06250   0.18750   0.31250   0.43750 
 KGrids3:   0.00000 
<Band_DFT>  Eigen, time=12.356148
<Band_DFT>  DM, time=0.000001
    1    C  MulP   1.9995  1.9995 sum   3.9990
    2    C  MulP   1.9986  1.9986 sum   3.9971
    3    C  MulP   1.9995  1.9995 sum   3.9990
    4    C  MulP   1.9988  1.9988 sum   3.9976
    5    C  MulP   1.9992  1.9992 sum   3.9984
    6    C  MulP   1.9992  1.9992 sum   3.9983
    7    C  MulP   1.9995  1.9995 sum   3.9989
    8    C  MulP   1.9989  1.9989 sum   3.9977
    9    C  MulP   1.9998  1.9998 sum   3.9996
   10    C  MulP   1.9985  1.9985 sum   3.9970
   11    C  MulP   1.9971  1.9971 sum   3.9942
   12    C  MulP   2.0000  2.0000 sum   4.0000
   13    C  MulP   1.9988  1.9988 sum   3.9977
   14    C  MulP   1.9992  1.9992 sum   3.9983
   15    C  MulP   1.9990  1.9990 sum   3.9979
   16    C  MulP   1.9994  1.9994 sum   3.9989
   17    C  MulP   1.9984  1.9984 sum   3.9968
   18    C  MulP   1.9996  1.9996 sum   3.9991
   19    C  MulP   1.9829  1.9829 sum   3.9657
   20    C  MulP   1.9721  1.9721 sum   3.9442
     ..........
     ......

 Sum of MulP: up   =   255.50000 down          =   255.50000
              total=   511.00000 ideal(neutral)=   511.00000
<DFT>  Total Spin Moment (muB) =  0.000000000000
<DFT>  Mixing_weight= 0.030000000000
<DFT>  Uele   = -247.092807822598  dUele     =   0.000005824278
<DFT>  NormRD =    0.000004601922  Criterion =   0.000000010000

******************* MD= 1  SCF=37 *******************
<Poisson>  Poisson's equation using FFT...
<Set_Hamiltonian>  Hamiltonian matrix for VNA+dVH+Vxc...
<Band>  Solving the eigenvalue problem...
 KGrids1:  -0.43750  -0.31250  -0.18750  -0.06250   0.06250   0.18750   0.31250   0.43750 
 KGrids2:  -0.43750  -0.31250  -0.18750  -0.06250   0.06250   0.18750   0.31250   0.43750 
 KGrids3:   0.00000 
<Band_DFT>  Eigen, time=12.390863
<Band_DFT>  DM, time=0.000000
    1    C  MulP   1.9995  1.9995 sum   3.9990
    2    C  MulP   1.9986  1.9986 sum   3.9971
    3    C  MulP   1.9995  1.9995 sum   3.9990
    4    C  MulP   1.9988  1.9988 sum   3.9976
    5    C  MulP   1.9992  1.9992 sum   3.9984
    6    C  MulP   1.9992  1.9992 sum   3.9983
    7    C  MulP   1.9995  1.9995 sum   3.9989
    8    C  MulP   1.9989  1.9989 sum   3.9977
    9    C  MulP   1.9998  1.9998 sum   3.9996
   10    C  MulP   1.9985  1.9985 sum   3.9970
   11    C  MulP   1.9971  1.9971 sum   3.9942
   12    C  MulP   2.0000  2.0000 sum   4.0000
   13    C  MulP   1.9988  1.9988 sum   3.9977
   14    C  MulP   1.9992  1.9992 sum   3.9983
   15    C  MulP   1.9990  1.9990 sum   3.9979
   16    C  MulP   1.9994  1.9994 sum   3.9989
   17    C  MulP   1.9984  1.9984 sum   3.9968
   18    C  MulP   1.9996  1.9996 sum   3.9991
   19    C  MulP   1.9829  1.9829 sum   3.9657
   20    C  MulP   1.9721  1.9721 sum   3.9442
     ..........
     ......

 Sum of MulP: up   =   255.50000 down          =   255.50000
              total=   511.00000 ideal(neutral)=   511.00000
<DFT>  Total Spin Moment (muB) =  0.000000000000
<DFT>  Mixing_weight= 0.030000000000
<DFT>  Uele   = -247.092804620436  dUele     =   0.000003202162
<DFT>  NormRD =    0.000003392237  Criterion =   0.000000010000

******************* MD= 1  SCF=38 *******************
<Poisson>  Poisson's equation using FFT...
<Set_Hamiltonian>  Hamiltonian matrix for VNA+dVH+Vxc...
<Band>  Solving the eigenvalue problem...
 KGrids1:  -0.43750  -0.31250  -0.18750  -0.06250   0.06250   0.18750   0.31250   0.43750 
 KGrids2:  -0.43750  -0.31250  -0.18750  -0.06250   0.06250   0.18750   0.31250   0.43750 
 KGrids3:   0.00000 
<Band_DFT>  Eigen, time=12.366949
<Band_DFT>  DM, time=0.000000
    1    C  MulP   1.9995  1.9995 sum   3.9990
    2    C  MulP   1.9986  1.9986 sum   3.9971
    3    C  MulP   1.9995  1.9995 sum   3.9990
    4    C  MulP   1.9988  1.9988 sum   3.9976
    5    C  MulP   1.9992  1.9992 sum   3.9984
    6    C  MulP   1.9992  1.9992 sum   3.9983
    7    C  MulP   1.9995  1.9995 sum   3.9989
    8    C  MulP   1.9989  1.9989 sum   3.9977
    9    C  MulP   1.9998  1.9998 sum   3.9996
   10    C  MulP   1.9985  1.9985 sum   3.9970
   11    C  MulP   1.9971  1.9971 sum   3.9942
   12    C  MulP   2.0000  2.0000 sum   4.0000
   13    C  MulP   1.9988  1.9988 sum   3.9977
   14    C  MulP   1.9992  1.9992 sum   3.9983
[...]
   19    C  MulP   1.9825  1.9825 sum   3.9649
   20    C  MulP   1.9738  1.9738 sum   3.9476
     ..........
     ......

 Sum of MulP: up   =   255.50000 down          =   255.50000
              total=   511.00000 ideal(neutral)=   511.00000
<DFT>  Total Spin Moment (muB) =  0.000000000000
<DFT>  Mixing_weight= 0.030000000000
<DFT>  Uele   = -247.231504783323  dUele     =   0.000000128838
<DFT>  NormRD =    0.000000549822  Criterion =   0.000000010000

******************* MD=43  SCF=19 *******************
<Poisson>  Poisson's equation using FFT...
<Set_Hamiltonian>  Hamiltonian matrix for VNA+dVH+Vxc...
<Band>  Solving the eigenvalue problem...
 KGrids1:  -0.43750  -0.31250  -0.18750  -0.06250   0.06250   0.18750   0.31250   0.43750 
 KGrids2:  -0.43750  -0.31250  -0.18750  -0.06250   0.06250   0.18750   0.31250   0.43750 
 KGrids3:   0.00000 
<Band_DFT>  Eigen, time=12.461823
<Band_DFT>  DM, time=0.000001
    1    C  MulP   1.9995  1.9995 sum   3.9990
    2    C  MulP   1.9985  1.9985 sum   3.9970
    3    C  MulP   1.9994  1.9994 sum   3.9988
    4    C  MulP   1.9988  1.9988 sum   3.9976
    5    C  MulP   1.9991  1.9991 sum   3.9983
    6    C  MulP   1.9991  1.9991 sum   3.9982
    7    C  MulP   1.9994  1.9994 sum   3.9988
    8    C  MulP   1.9988  1.9988 sum   3.9976
    9    C  MulP   1.9997  1.9997 sum   3.9995
   10    C  MulP   1.9984  1.9984 sum   3.9968
   11    C  MulP   1.9969  1.9969 sum   3.9937
   12    C  MulP   2.0000  2.0000 sum   3.9999
   13    C  MulP   1.9988  1.9988 sum   3.9976
   14    C  MulP   1.9991  1.9991 sum   3.9983
   15    C  MulP   1.9989  1.9989 sum   3.9978
   16    C  MulP   1.9994  1.9994 sum   3.9987
   17    C  MulP   1.9983  1.9983 sum   3.9966
   18    C  MulP   1.9994  1.9994 sum   3.9989
   19    C  MulP   1.9825  1.9825 sum   3.9649
   20    C  MulP   1.9738  1.9738 sum   3.9476
     ..........
     ......

 Sum of MulP: up   =   255.50000 down          =   255.50000
              total=   511.00000 ideal(neutral)=   511.00000
<DFT>  Total Spin Moment (muB) =  0.000000000000
<DFT>  Mixing_weight= 0.030000000000
<DFT>  Uele   = -247.231504785804  dUele     =   0.000000002481
<DFT>  NormRD =    0.000000281991  Criterion =   0.000000010000
<MD=43>  Force calculation
  Force calculation #1
  Force calculation #2
  Force calculation #3
  Force calculation #4
  Force calculation #5
<MD=43>  Total Energy
  Force calculation #6
  Force calculation #7

*******************************************************
                  Dipole moment (Debye)                 
*******************************************************

 Absolute D      176.07275787

                      Dx                Dy                Dz
 Total            175.82189542       -9.39091572       -0.29640566
 Core           11930.17602831    20981.93388010    26159.00970626
 Electron      -11754.35413290   -20991.32479582   -26159.30611191
 Back ground       -0.00000000       -0.00000000       -0.00000000

*******************************************************
                Total Energy (Hartree) at MD =43        
*******************************************************

  Uele  =    -247.231504785804

  Ukin  =     545.942130162174
  UH0   =   -7026.778578790812
  UH1   =       1.927750642389
  Una   =    -401.552809303661
  Unl   =     -55.317015921828
  Uxc0  =    -124.722836085800
  Uxc1  =    -124.722836085800
  Ucore =    6417.844019269516
  Uhub  =       0.000000000000
  Ucs   =       0.000000000000
  Uzs   =       0.000000000000
  Uzo   =       0.000000000000
  Uef   =       0.000000000000
  UvdW  =       0.000000000000
  Uch   =       0.000000000000
  Utot  =    -767.380176113821

  UpV   =       0.000000000000
  Enpy  =    -767.380176113821
  Note:

  Uele:   band energy
  Ukin:   kinetic energy
  UH0:    electric part of screened Coulomb energy
  UH1:    difference electron-electron Coulomb energy
  Una:    neutral atom potential energy
  Unl:    non-local potential energy
  Uxc0:   exchange-correlation energy for alpha spin
  Uxc1:   exchange-correlation energy for beta spin
  Ucore:  core-core Coulomb energy
  Uhub:   LDA+U energy
  Ucs:    constraint energy for spin orientation
  Uzs:    Zeeman term for spin magnetic moment
  Uzo:    Zeeman term for orbital magnetic moment
  Uef:    electric energy by electric field
  UvdW:   semi-empirical vdW energy 
  Uch:    penalty term to create a core hole
  UpV:    pressure times volume
  Enpy:   Enthalpy = Utot + UpV
  (see also PRB 72, 045121(2005) for the energy contributions)


*******************************************************
           Computational times (s) at MD =43            
*******************************************************

  DFT in total      =  280.16600

  Set_OLP_Kin       =    0.57592
  Set_Nonlocal      =    2.19482
  Set_ProExpn_VNA   =    3.72395
  Set_Hamiltonian   =   13.72759
  Poisson           =    0.22088
  diagonalization   =  246.77987
  Mixing_DM         =    1.98150
  Force             =    3.09186
  Total_Energy      =    1.11563
  Set_Aden_Grid     =    0.23168
  Set_Orbitals_Grid =    0.27727
  Set_Density_Grid  =    5.41469
  RestartFileDFT    =    0.33105
  Mulliken_Charge   =    0.01309
  FFT(2D)_Density   =    0.23612

The SCF was achieved at MD=  43

*******************************************************
             MD or geometry opt. at MD =43              
*******************************************************


The geometry optimization was achieved.
<RF>  |Maximum force| (Hartree/Bohr) = 0.000096569622
<RF>  Criterion       (Hartree/Bohr) = 0.000100000000

     atom=   1, XYZ(ang) Fxyz(a.u.)=   0.0501    1.4267   10.3795    -0.0000    0.0000   -0.0000
     atom=   2, XYZ(ang) Fxyz(a.u.)=  -1.1854    3.5603   10.4221    -0.0000   -0.0000   -0.0000
     atom=   3, XYZ(ang) Fxyz(a.u.)=  -2.4183    5.6938   10.4889    -0.0000   -0.0000   -0.0000
     atom=   4, XYZ(ang) Fxyz(a.u.)=  -3.6580    7.8322   10.5075    -0.0000   -0.0000   -0.0000
     atom=   5, XYZ(ang) Fxyz(a.u.)=  -4.8929    9.9672   10.4620     0.0000   -0.0000   -0.0001
     atom=   6, XYZ(ang) Fxyz(a.u.)=  -6.1252   12.1055   10.4177     0.0000   -0.0000    0.0000
     atom=   7, XYZ(ang) Fxyz(a.u.)=  -7.3559   14.2427   10.3849     0.0000   -0.0000    0.0000
     atom=   8, XYZ(ang) Fxyz(a.u.)=  -8.5866   16.3819   10.3698    -0.0000   -0.0000   -0.0000
     atom=   9, XYZ(ang) Fxyz(a.u.)=   2.5160    1.4278   10.3847    -0.0000    0.0000   -0.0000
     atom=  10, XYZ(ang) Fxyz(a.u.)=   1.2859    3.5654   10.4169    -0.0000    0.0000    0.0000
     atom=  11, XYZ(ang) Fxyz(a.u.)=   0.0486    5.6999   10.5031    -0.0000   -0.0000    0.0000
     atom=  12, XYZ(ang) Fxyz(a.u.)=  -1.1895    7.8267   10.6260    -0.0000   -0.0000    0.0000
     atom=  13, XYZ(ang) Fxyz(a.u.)=  -2.4263    9.9710   10.5500    -0.0000    0.0000   -0.0000
     atom=  14, XYZ(ang) Fxyz(a.u.)=  -3.6613   12.1049   10.4719    -0.0000    0.0000   -0.0000
     atom=  15, XYZ(ang) Fxyz(a.u.)=  -4.8896   14.2419   10.4163    -0.0000   -0.0000    0.0000
     atom=  16, XYZ(ang) Fxyz(a.u.)=  -6.1215   16.3807   10.3880    -0.0000    0.0000   -0.0000
     atom=  17, XYZ(ang) Fxyz(a.u.)=   4.9814    1.4222   10.4036    -0.0000    0.0000    0.0000
     atom=  18, XYZ(ang) Fxyz(a.u.)=   3.7538    3.5698   10.4053    -0.0000    0.0000    0.0000
     atom=  19, XYZ(ang) Fxyz(a.u.)=   2.5214    5.7185   10.4788     0.0000   -0.0000    0.0000
     atom=  20, XYZ(ang) Fxyz(a.u.)=   1.2926    7.8181   10.7114     0.0000   -0.0000    0.0000
     atom=  21, XYZ(ang) Fxyz(a.u.)=   0.0159    9.9798   10.7731    -0.0000    0.0000    0.0000
     atom=  22, XYZ(ang) Fxyz(a.u.)=  -1.1936   12.1018   10.5462    -0.0000    0.0000   -0.0000
     atom=  23, XYZ(ang) Fxyz(a.u.)=  -2.4227   14.2393   10.4587    -0.0000    0.0000   -0.0000
     atom=  24, XYZ(ang) Fxyz(a.u.)=  -3.6555   16.3774   10.4202    -0.0000    0.0000    0.0000
     atom=  25, XYZ(ang) Fxyz(a.u.)=   7.4489    1.4206   10.4280    -0.0000    0.0000    0.0000
     atom=  26, XYZ(ang) Fxyz(a.u.)=   6.2093    3.5587   10.4326    -0.0000   -0.0000    0.0000
     atom=  27, XYZ(ang) Fxyz(a.u.)=   4.9896    5.6845   10.4555    -0.0000    0.0000    0.0000
     atom=  28, XYZ(ang) Fxyz(a.u.)=   2.5270    9.9769   10.7202     0.0001    0.0000   -0.0001
     atom=  29, XYZ(ang) Fxyz(a.u.)=   1.2788   12.0860   10.5762    -0.0000    0.0000    0.0000
     atom=  30, XYZ(ang) Fxyz(a.u.)=   0.0472   14.2269   10.4961    -0.0000   -0.0000    0.0000
     atom=  31, XYZ(ang) Fxyz(a.u.)=  -1.1850   16.3711   10.4470    -0.0000    0.0000   -0.0000
     atom=  32, XYZ(ang) Fxyz(a.u.)=   9.9163    1.4137   10.4392    -0.0000    0.0000   -0.0000
     atom=  33, XYZ(ang) Fxyz(a.u.)=   8.6818    3.5559   10.4385    -0.0000   -0.0000   -0.0000
     atom=  34, XYZ(ang) Fxyz(a.u.)=   7.4429    5.7069   10.4481    -0.0000   -0.0000   -0.0000
     atom=  35, XYZ(ang) Fxyz(a.u.)=   3.7771   12.0654   10.4451     0.0000    0.0000   -0.0000
     atom=  36, XYZ(ang) Fxyz(a.u.)=   2.5240   14.2207   10.4557     0.0000   -0.0000   -0.0000
     atom=  37, XYZ(ang) Fxyz(a.u.)=   1.2828   16.3650   10.4478    -0.0000    0.0000   -0.0000
     atom=  38, XYZ(ang) Fxyz(a.u.)=  12.3848    1.4138   10.4278     0.0000    0.0000    0.0001
     atom=  39, XYZ(ang) Fxyz(a.u.)=  11.1502    3.5542   10.4368     0.0000   -0.0000    0.0000
     atom=  40, XYZ(ang) Fxyz(a.u.)=   9.9125    5.6939   10.4403    -0.0000    0.0000   -0.0000
     atom=  41, XYZ(ang) Fxyz(a.u.)=   8.6537    7.8280   10.4412    -0.0000    0.0000   -0.0000
     atom=  42, XYZ(ang) Fxyz(a.u.)=   7.4555    9.9859   10.4256    -0.0000    0.0000    0.0000
     atom=  43, XYZ(ang) Fxyz(a.u.)=   6.2188   12.0995   10.4048     0.0000    0.0000    0.0001
     atom=  44, XYZ(ang) Fxyz(a.u.)=   4.9850   14.2333   10.3966    -0.0000    0.0000    0.0000
     atom=  45, XYZ(ang) Fxyz(a.u.)=   3.7514   16.3682   10.4117    -0.0000    0.0000   -0.0000
     atom=  46, XYZ(ang) Fxyz(a.u.)=  14.8513    1.4171   10.4058     0.0000    0.0000    0.0000
     atom=  47, XYZ(ang) Fxyz(a.u.)=  13.6178    3.5541   10.4305     0.0000   -0.0000    0.0001
     atom=  48, XYZ(ang) Fxyz(a.u.)=  12.3808    5.6916   10.4406     0.0000    0.0000    0.0000
     atom=  49, XYZ(ang) Fxyz(a.u.)=  11.1408    7.8302   10.4351    -0.0000    0.0000    0.0000
     atom=  50, XYZ(ang) Fxyz(a.u.)=   9.9029    9.9717   10.4161     0.0000    0.0000    0.0000
     atom=  51, XYZ(ang) Fxyz(a.u.)=   8.6881   12.1036   10.3937    -0.0000    0.0000    0.0000
     atom=  52, XYZ(ang) Fxyz(a.u.)=   7.4538   14.2424   10.3743    -0.0000   -0.0000    0.0000
     atom=  53, XYZ(ang) Fxyz(a.u.)=   6.2162   16.3767   10.3816    -0.0000    0.0000    0.0000
     atom=  54, XYZ(ang) Fxyz(a.u.)=  17.3204    1.4214   10.3884    -0.0000    0.0000   -0.0000
     atom=  55, XYZ(ang) Fxyz(a.u.)=  16.0847    3.5575   10.4260    -0.0000   -0.0000   -0.0000
     atom=  56, XYZ(ang) Fxyz(a.u.)=  14.8500    5.6924   10.4574    -0.0000   -0.0000    0.0000
     atom=  57, XYZ(ang) Fxyz(a.u.)=  13.6120    7.8315   10.4504    -0.0000   -0.0000   -0.0000
     atom=  58, XYZ(ang) Fxyz(a.u.)=  12.3741    9.9662   10.4251     0.0000    0.0000   -0.0000
     atom=  59, XYZ(ang) Fxyz(a.u.)=  11.1504   12.1058   10.3948     0.0000    0.0000    0.0000
     atom=  60, XYZ(ang) Fxyz(a.u.)=   9.9169   14.2439   10.3723     0.0000   -0.0000    0.0000
     atom=  61, XYZ(ang) Fxyz(a.u.)=   8.6851   16.3805   10.3681    -0.0000   -0.0000   -0.0000
     atom=  62, XYZ(ang) Fxyz(a.u.)=   1.2836    0.7149   10.3750    -0.0000    0.0000    0.0000
     atom=  63, XYZ(ang) Fxyz(a.u.)=   0.0519    2.8519   10.4021    -0.0000   -0.0000    0.0000
     atom=  64, XYZ(ang) Fxyz(a.u.)=  -1.1864    4.9854   10.4670    -0.0000   -0.0000   -0.0000
     atom=  65, XYZ(ang) Fxyz(a.u.)=  -2.4154    7.1213   10.5417    -0.0000   -0.0000   -0.0000
     atom=  66, XYZ(ang) Fxyz(a.u.)=  -3.6587    9.2569   10.5032    -0.0000    0.0000    0.0000
     atom=  67, XYZ(ang) Fxyz(a.u.)=  -4.8914   11.3932   10.4493    -0.0000    0.0000    0.0000
     atom=  68, XYZ(ang) Fxyz(a.u.)=  -6.1231   13.5294   10.4041    -0.0000   -0.0000   -0.0001
     atom=  69, XYZ(ang) Fxyz(a.u.)=  -7.3547   15.6687   10.3782     0.0000   -0.0000   -0.0000
     atom=  70, XYZ(ang) Fxyz(a.u.)=   3.7485    0.7118   10.3889    -0.0000    0.0000    0.0000
     atom=  71, XYZ(ang) Fxyz(a.u.)=   2.5169    2.8558   10.3984    -0.0000    0.0000    0.0000
     atom=  72, XYZ(ang) Fxyz(a.u.)=   1.2861    4.9969   10.4656    -0.0000   -0.0000   -0.0000
     atom=  73, XYZ(ang) Fxyz(a.u.)=   0.0478    7.1148   10.6110    -0.0000   -0.0000   -0.0000
     atom=  74, XYZ(ang) Fxyz(a.u.)=  -1.1871    9.2629   10.6531    -0.0000    0.0000   -0.0001
     atom=  75, XYZ(ang) Fxyz(a.u.)=  -2.4262   11.3917   10.5278    -0.0000    0.0000   -0.0000
     atom=  76, XYZ(ang) Fxyz(a.u.)=  -3.6578   13.5288   10.4482    -0.0000    0.0000    0.0000
     atom=  77, XYZ(ang) Fxyz(a.u.)=  -4.8883   15.6671   10.4061    -0.0000    0.0000   -0.0000
     atom=  78, XYZ(ang) Fxyz(a.u.)=   6.2132    0.7089   10.4167    -0.0000   -0.0000    0.0000
     atom=  79, XYZ(ang) Fxyz(a.u.)=   4.9804    2.8512   10.4108     0.0000    0.0000   -0.0000
     atom=  80, XYZ(ang) Fxyz(a.u.)=   3.7584    5.0097   10.4325    -0.0000   -0.0000   -0.0000
     atom=  81, XYZ(ang) Fxyz(a.u.)=   2.4785    7.1316   10.5858    -0.0000    0.0000   -0.0000
     atom=  82, XYZ(ang) Fxyz(a.u.)=   1.2856    9.2464   11.1369    -0.0000    0.0000    0.0000
     atom=  83, XYZ(ang) Fxyz(a.u.)=   0.0374   11.3829   10.6407     0.0000   -0.0000   -0.0000
     atom=  84, XYZ(ang) Fxyz(a.u.)=  -1.1888   13.5237   10.4969     0.0000    0.0000   -0.0000
     atom=  85, XYZ(ang) Fxyz(a.u.)=  -2.4214   15.6621   10.4412     0.0000    0.0000   -0.0000
     atom=  86, XYZ(ang) Fxyz(a.u.)=   8.6836    0.7038   10.4375    -0.0000    0.0000    0.0000
     atom=  87, XYZ(ang) Fxyz(a.u.)=   7.4472    2.8447   10.4323    -0.0000   -0.0000    0.0000
     atom=  88, XYZ(ang) Fxyz(a.u.)=   6.2041    4.9943   10.4487    -0.0000    0.0000   -0.0000
     atom=  89, XYZ(ang) Fxyz(a.u.)=   2.5323   11.3388   10.5480     0.0000   -0.0000   -0.0000
     atom=  90, XYZ(ang) Fxyz(a.u.)=   1.2825   13.5004   10.5122     0.0000   -0.0000    0.0000
     atom=  91, XYZ(ang) Fxyz(a.u.)=   0.0483   15.6529   10.4628    -0.0000    0.0000   -0.0000
     atom=  92, XYZ(ang) Fxyz(a.u.)=  11.1505    0.6965   10.4381    -0.0000    0.0000   -0.0000
     atom=  93, XYZ(ang) Fxyz(a.u.)=   9.9149    2.8411   10.4383    -0.0000   -0.0000    0.0000
     atom=  94, XYZ(ang) Fxyz(a.u.)=   8.6838    4.9850   10.4411    -0.0000   -0.0000    0.0000
     atom=  95, XYZ(ang) Fxyz(a.u.)=   7.4583    7.1038   10.4485    -0.0000   -0.0000    0.0000
     atom=  96, XYZ(ang) Fxyz(a.u.)=   5.0029   11.4086   10.4307    -0.0000   -0.0000    0.0000
     atom=  97, XYZ(ang) Fxyz(a.u.)=   3.7623   13.5089   10.4260     0.0000    0.0000    0.0000
     atom=  98, XYZ(ang) Fxyz(a.u.)=   2.5193   15.6451   10.4368    -0.0000    0.0000    0.0000
     atom=  99, XYZ(ang) Fxyz(a.u.)=  13.6191    0.7017   10.4137    -0.0000   -0.0000   -0.0000
     atom= 100, XYZ(ang) Fxyz(a.u.)=  12.3844    2.8395   10.4306     0.0000   -0.0000   -0.0000
     atom= 101, XYZ(ang) Fxyz(a.u.)=  11.1503    4.9788   10.4382    -0.0000   -0.0000   -0.0000
     atom= 102, XYZ(ang) Fxyz(a.u.)=   9.9042    7.1146   10.4400    -0.0000    0.0000    0.0000
     atom= 103, XYZ(ang) Fxyz(a.u.)=   8.6529    9.2607   10.4281    -0.0000    0.0000    0.0000
     atom= 104, XYZ(ang) Fxyz(a.u.)=   7.4502   11.3869   10.4070     0.0000    0.0000   -0.0000
     atom= 105, XYZ(ang) Fxyz(a.u.)=   6.2169   13.5304   10.3869     0.0000   -0.0000   -0.0000
     atom= 106, XYZ(ang) Fxyz(a.u.)=   4.9832   15.6618   10.3943    -0.0000   -0.0000    0.0000
     atom= 107, XYZ(ang) Fxyz(a.u.)=  16.0861    0.7072   10.3897    -0.0000    0.0000    0.0000
     atom= 108, XYZ(ang) Fxyz(a.u.)=  14.8514    2.8434   10.4189     0.0000    0.0000   -0.0000
     atom= 109, XYZ(ang) Fxyz(a.u.)=  13.6178    4.9801   10.4411     0.0000   -0.0000   -0.0001
     atom= 110, XYZ(ang) Fxyz(a.u.)=  12.3767    7.1189   10.4405     0.0000    0.0000   -0.0000
     atom= 111, XYZ(ang) Fxyz(a.u.)=  11.1404    9.2557   10.4251    -0.0000    0.0000    0.0000
     atom= 112, XYZ(ang) Fxyz(a.u.)=   9.9146   11.3921   10.4003    -0.0000    0.0000    0.0000
     atom= 113, XYZ(ang) Fxyz(a.u.)=   8.6854   13.5319   10.3777     0.0000   -0.0000   -0.0000
     atom= 114, XYZ(ang) Fxyz(a.u.)=   7.4525   15.6667   10.3712     0.0000   -0.0000    0.0000
     atom= 115, XYZ(ang) Fxyz(a.u.)=  18.5545    0.7126   10.3756     0.0000    0.0000    0.0000
     atom= 116, XYZ(ang) Fxyz(a.u.)=  17.3209    2.8472   10.4097    -0.0000    0.0000    0.0000
     atom= 117, XYZ(ang) Fxyz(a.u.)=  16.0851    4.9820   10.4549    -0.0000   -0.0000    0.0000
     atom= 118, XYZ(ang) Fxyz(a.u.)=  14.8501    7.1209   10.4701    -0.0000   -0.0000    0.0000
     atom= 119, XYZ(ang) Fxyz(a.u.)=  13.6111    9.2545   10.4448    -0.0000    0.0000    0.0000
     atom= 120, XYZ(ang) Fxyz(a.u.)=  12.3800   11.3933   10.4106    -0.0000   -0.0000   -0.0000
     atom= 121, XYZ(ang) Fxyz(a.u.)=  11.1512   13.5303   10.3816     0.0000   -0.0000   -0.0000
     atom= 122, XYZ(ang) Fxyz(a.u.)=   9.9180   15.6690   10.3668    -0.0000   -0.0000    0.0000
     atom= 123, XYZ(ang) Fxyz(a.u.)=   1.3062    9.2733   12.6142     0.0001   -0.0000    0.0001
     atom= 124, XYZ(ang) Fxyz(a.u.)=   2.1620    8.8685   12.8647    -0.0000    0.0001   -0.0000
     atom= 125, XYZ(ang) Fxyz(a.u.)=   2.6802    8.4545   16.0076     0.0001    0.0000    0.0000
     atom= 126, XYZ(ang) Fxyz(a.u.)=   2.9816    8.3162   14.8703    -0.0001   -0.0001   -0.0000
     atom= 127, XYZ(ang) Fxyz(a.u.)=   2.3858    8.5870   17.1515    -0.0001    0.0001   -0.0001

outputting data on grids to files...


***********************************************************
***********************************************************
               Computational Time (second)                 
***********************************************************
***********************************************************

                               Min_ID   Min_Time       Max_ID   Max_Time
   Total Computational Time =     4    14625.700          0    14626.139
   readfile                 =    25        2.603          6        2.609
   truncation               =    23       29.932         30       34.747
   MD_pac                   =     0        2.101         22        2.254
   OutData                  =    27        0.784          0        1.218
   DFT                      =    30    14585.184         23    14589.999

*** In DFT ***

   Set_OLP_Kin              =    23       11.995         24       49.880
   Set_Nonlocal             =    24       69.231         23      107.117
   Set_ProExpn_VNA          =    23      127.024         10      168.227
   Set_Hamiltonian          =    12      724.376         23      724.377
   Poisson                  =    34       11.491          4       11.498
   Diagonalization          =     0    12932.796          3    12932.817
   Mixing_DM                =     8      107.046          3      107.052
   Force                    =     3      132.452         26      132.452
   Total_Energy             =    27       48.083          0       48.097
   Set_Aden_Grid            =    10        2.427         23       43.662
   Set_Orbitals_Grid        =    23        5.534         16       24.942
   Set_Density_Grid         =    35      281.744         14      292.727
   RestartFileDFT           =    48        3.118         23       20.912
   Mulliken_Charge          =    39        0.667         44        0.668
   FFT(2D)_Density          =     1       12.121         29       12.136
   Others                   =    16        6.427         35       18.289

The calculation was normally finished.
