
The number of threads in each node for OpenMP parallelization is 1.


*******************************************************
*******************************************************
 Welcome to OpenMX   Ver. 3.9.9                           
 Copyright (C), 2002-2019, T. Ozaki                    
 OpenMX comes with ABSOLUTELY NO WARRANTY.             
 This is free software, and you are welcome to         
 redistribute it under the constitution of the GNU-GPL.
*******************************************************
*******************************************************

Automatic determination of Kerker_factor:   3.992939476625


<Input_std>  Your input file was normally read.
<Input_std>  The system includes 1 species and 104 atoms.

*******************************************************
                     PAO and VPS                       
*******************************************************

<SetPara_DFT>  PAOs of species C were normally found.
<SetPara_DFT>  VPSs of species C were normally found.
               C_PBE19.vps is j-dependent.
               In case of scf.SpinOrbit.Coupling=off,
               j-dependent pseudo potentials are averaged by j-degeneracy,
               which corresponds to a scalar relativistic treatment.

*******************************************************
     Fourier transform of PAO and projectors of VNL    
*******************************************************

<FT_PAO>          Fourier transform of pseudo atomic orbitals
<FT_NLP>          Fourier transform of non-local projectors
<FT_ProExpn_VNA>  Fourier transform of VNA separable projectors
<FT_VNA>          Fourier transform of VNA potentials
<FT_ProductPAO>   Fourier transform of product of PAOs

*******************************************************
  Allocation of atoms to processors at MD_iter=    1     
*******************************************************

 proc =   0  # of atoms=   3  estimated weight=         3.00000
 proc =   1  # of atoms=   3  estimated weight=         3.00000
 proc =   2  # of atoms=   3  estimated weight=         3.00000
 proc =   3  # of atoms=   4  estimated weight=         4.00000
 proc =   4  # of atoms=   3  estimated weight=         3.00000
 proc =   5  # of atoms=   3  estimated weight=         3.00000
 proc =   6  # of atoms=   3  estimated weight=         3.00000
 proc =   7  # of atoms=   4  estimated weight=         4.00000
 proc =   8  # of atoms=   3  estimated weight=         3.00000
 proc =   9  # of atoms=   3  estimated weight=         3.00000
 proc =  10  # of atoms=   3  estimated weight=         3.00000
 proc =  11  # of atoms=   4  estimated weight=         4.00000
 proc =  12  # of atoms=   3  estimated weight=         3.00000
 proc =  13  # of atoms=   3  estimated weight=         3.00000
 proc =  14  # of atoms=   3  estimated weight=         3.00000
 proc =  15  # of atoms=   4  estimated weight=         4.00000
 proc =  16  # of atoms=   3  estimated weight=         3.00000
 proc =  17  # of atoms=   3  estimated weight=         3.00000
 proc =  18  # of atoms=   3  estimated weight=         3.00000
 proc =  19  # of atoms=   4  estimated weight=         4.00000
 proc =  20  # of atoms=   3  estimated weight=         3.00000
 proc =  21  # of atoms=   3  estimated weight=         3.00000
 proc =  22  # of atoms=   3  estimated weight=         3.00000
 proc =  23  # of atoms=   4  estimated weight=         4.00000
 proc =  24  # of atoms=   3  estimated weight=         3.00000
 proc =  25  # of atoms=   3  estimated weight=         3.00000
 proc =  26  # of atoms=   3  estimated weight=         3.00000
 proc =  27  # of atoms=   4  estimated weight=         4.00000
 proc =  28  # of atoms=   3  estimated weight=         3.00000
 proc =  29  # of atoms=   3  estimated weight=         3.00000
 proc =  30  # of atoms=   3  estimated weight=         3.00000
 proc =  31  # of atoms=   4  estimated weight=         4.00000




*******************************************************
        Analysis of neighbors and setting of grids        
*******************************************************

TFNAN=    4068   Average FNAN=  39.11538
TSNAN=       0   Average SNAN=   0.00000
<truncation> CpyCell= 1 ct_AN=   1 FNAN SNAN  42   0
<truncation> CpyCell= 1 ct_AN=   2 FNAN SNAN  40   0
<truncation> CpyCell= 1 ct_AN=   3 FNAN SNAN  40   0
<truncation> CpyCell= 1 ct_AN=   4 FNAN SNAN  42   0
<truncation> CpyCell= 1 ct_AN=   5 FNAN SNAN  43   0
<truncation> CpyCell= 1 ct_AN=   6 FNAN SNAN  43   0
<truncation> CpyCell= 1 ct_AN=   7 FNAN SNAN  43   0
<truncation> CpyCell= 1 ct_AN=   8 FNAN SNAN  43   0
<truncation> CpyCell= 1 ct_AN=   9 FNAN SNAN  39   0
<truncation> CpyCell= 1 ct_AN=  10 FNAN SNAN  35   0
<truncation> CpyCell= 1 ct_AN=  11 FNAN SNAN  33   0
<truncation> CpyCell= 1 ct_AN=  12 FNAN SNAN  35   0
<truncation> CpyCell= 1 ct_AN=  13 FNAN SNAN  39   0
<truncation> CpyCell= 1 ct_AN=  14 FNAN SNAN  43   0
<truncation> CpyCell= 1 ct_AN=  15 FNAN SNAN  45   0
<truncation> CpyCell= 1 ct_AN=  16 FNAN SNAN  43   0
<truncation> CpyCell= 1 ct_AN=  17 FNAN SNAN  37   0
<truncation> CpyCell= 1 ct_AN=  18 FNAN SNAN  31   0
<truncation> CpyCell= 1 ct_AN=  19 FNAN SNAN  31   0
<truncation> CpyCell= 1 ct_AN=  20 FNAN SNAN  37   0
     ..........
     ......

TFNAN=    4068   Average FNAN=  39.11538
TSNAN=       0   Average SNAN=   0.00000
<truncation> CpyCell= 2 ct_AN=   1 FNAN SNAN  42   0
<truncation> CpyCell= 2 ct_AN=   2 FNAN SNAN  40   0
<truncation> CpyCell= 2 ct_AN=   3 FNAN SNAN  40   0
<truncation> CpyCell= 2 ct_AN=   4 FNAN SNAN  42   0
<truncation> CpyCell= 2 ct_AN=   5 FNAN SNAN  43   0
<truncation> CpyCell= 2 ct_AN=   6 FNAN SNAN  43   0
<truncation> CpyCell= 2 ct_AN=   7 FNAN SNAN  43   0
<truncation> CpyCell= 2 ct_AN=   8 FNAN SNAN  43   0
<truncation> CpyCell= 2 ct_AN=   9 FNAN SNAN  39   0
<truncation> CpyCell= 2 ct_AN=  10 FNAN SNAN  35   0
<truncation> CpyCell= 2 ct_AN=  11 FNAN SNAN  33   0
<truncation> CpyCell= 2 ct_AN=  12 FNAN SNAN  35   0
<truncation> CpyCell= 2 ct_AN=  13 FNAN SNAN  39   0
<truncation> CpyCell= 2 ct_AN=  14 FNAN SNAN  43   0
<truncation> CpyCell= 2 ct_AN=  15 FNAN SNAN  45   0
<truncation> CpyCell= 2 ct_AN=  16 FNAN SNAN  43   0
<truncation> CpyCell= 2 ct_AN=  17 FNAN SNAN  37   0
<truncation> CpyCell= 2 ct_AN=  18 FNAN SNAN  31   0
<truncation> CpyCell= 2 ct_AN=  19 FNAN SNAN  31   0
<truncation> CpyCell= 2 ct_AN=  20 FNAN SNAN  37   0
     ..........
     ......

TFNAN=    4068   Average FNAN=  39.11538
TSNAN=       0   Average SNAN=   0.00000
<truncation> CpyCell= 2 ct_AN=   1 FNAN SNAN  42   0
<truncation> CpyCell= 2 ct_AN=   2 FNAN SNAN  40   0
<truncation> CpyCell= 2 ct_AN=   3 FNAN SNAN  40   0
<truncation> CpyCell= 2 ct_AN=   4 FNAN SNAN  42   0
<truncation> CpyCell= 2 ct_AN=   5 FNAN SNAN  43   0
<truncation> CpyCell= 2 ct_AN=   6 FNAN SNAN  43   0
<truncation> CpyCell= 2 ct_AN=   7 FNAN SNAN  43   0
<truncation> CpyCell= 2 ct_AN=   8 FNAN SNAN  43   0
<truncation> CpyCell= 2 ct_AN=   9 FNAN SNAN  39   0
<truncation> CpyCell= 2 ct_AN=  10 FNAN SNAN  35   0
<truncation> CpyCell= 2 ct_AN=  11 FNAN SNAN  33   0
<truncation> CpyCell= 2 ct_AN=  12 FNAN SNAN  35   0
<truncation> CpyCell= 2 ct_AN=  13 FNAN SNAN  39   0
<truncation> CpyCell= 2 ct_AN=  14 FNAN SNAN  43   0
<truncation> CpyCell= 2 ct_AN=  15 FNAN SNAN  45   0
<truncation> CpyCell= 2 ct_AN=  16 FNAN SNAN  43   0
<truncation> CpyCell= 2 ct_AN=  17 FNAN SNAN  37   0
<truncation> CpyCell= 2 ct_AN=  18 FNAN SNAN  31   0
<truncation> CpyCell= 2 ct_AN=  19 FNAN SNAN  31   0
<truncation> CpyCell= 2 ct_AN=  20 FNAN SNAN  37   0
     ..........
     ......

<Check_System> The system is slab.
lattice vectors (bohr)
A  = 37.300037061873,  0.000000000000,  0.000000000000
B  = -18.650023066279, 32.302777060622,  0.000000000000
C  =  0.000000000000,  0.000000000000, 39.684245760157
reciprocal lattice vectors (bohr^-1)
RA =  0.168449840861,  0.097254592436, -0.000000000000
RB =  0.000000000000,  0.194509137570,  0.000000000000
RC =  0.000000000000, -0.000000000000,  0.158329462658
Grid_Origin  0.051805605334  0.089729921743  0.091861680000
Cell_Volume =  47815.340626661513 (Bohr^3)
GridVol     =      0.006832324621 (Bohr^3)
Grid_Origin  0.051805605334  0.089729921743  0.091861680000
Cell_Volume =  47815.340626661513 (Bohr^3)
GridVol     =      0.006832324621 (Bohr^3)
<UCell_Box> Info. of cutoff energy and num. of grids
lattice vectors (bohr)
A  = 37.300037061873,  0.000000000000,  0.000000000000
B  = -18.650023066279, 32.302777060622,  0.000000000000
C  =  0.000000000000,  0.000000000000, 39.684245760157
reciprocal lattice vectors (bohr^-1)
RA =  0.168449840861,  0.097254592436, -0.000000000000
RB =  0.000000000000,  0.194509137570,  0.000000000000
RC =  0.000000000000, -0.000000000000,  0.158329462658
Required cutoff energy (Ryd) for 3D-grids = 300.0000
    Used cutoff energy (Ryd) for 3D-grids = 306.4538, 306.4538, 292.3957
Num. of grids of a-, b-, and c-axes = 180, 180, 216
Grid_Origin  0.051805605334  0.089729921743  0.091861680000
Cell_Volume =  47815.340626661513 (Bohr^3)
GridVol     =      0.006832324621 (Bohr^3)
Cell vectors (bohr) of the grid cell (gtv)
  gtv_a =  0.207222428122,  0.000000000000,  0.000000000000
  gtv_b = -0.103611239257,  0.179459872559,  0.000000000000
  gtv_c =  0.000000000000,  0.000000000000,  0.183723360001
  |gtv_a| =  0.207222428122
  |gtv_b| =  0.207222428225
  |gtv_c| =  0.183723360001
Num. of grids overlapping with atom    1 = 132408
Num. of grids overlapping with atom    2 = 132426
Num. of grids overlapping with atom    3 = 132408
Num. of grids overlapping with atom    4 = 132426
Num. of grids overlapping with atom    5 = 132408
Num. of grids overlapping with atom    6 = 132426
Num. of grids overlapping with atom    7 = 132408
Num. of grids overlapping with atom    8 = 132426
Num. of grids overlapping with atom    9 = 132408
Num. of grids overlapping with atom   10 = 132408
Num. of grids overlapping with atom   11 = 132408
Num. of grids overlapping with atom   12 = 132408
Num. of grids overlapping with atom   13 = 132408
Num. of grids overlapping with atom   14 = 132408
Num. of grids overlapping with atom   15 = 132408
Num. of grids overlapping with atom   16 = 132408
Num. of grids overlapping with atom   17 = 132408
Num. of grids overlapping with atom   18 = 132426
Num. of grids overlapping with atom   19 = 132408
Num. of grids overlapping with atom   20 = 132426
     ..........
     ......


*******************************************************
             SCF calculation at MD = 1                
*******************************************************

<MD= 1>  Calculation of the overlap matrix
<MD= 1>  Calculation of the nonlocal matrix
<MD= 1>  Calculation of the VNA projector matrix

******************* MD= 1  SCF= 1 *******************
<Band>  Solving the eigenvalue problem...
 KGrids1:  -0.43750  -0.31250  -0.18750  -0.06250   0.06250   0.18750   0.31250   0.43750 
 KGrids2:  -0.43750  -0.31250  -0.18750  -0.06250   0.06250   0.18750   0.31250   0.43750 
 KGrids3:   0.00000 
<Band_DFT>  Eigen, time=15.112209
<Band_DFT>  DM, time=0.000005
    1    C  MulP   1.9826  1.9826 sum   3.9652
    2    C  MulP   1.9930  1.9930 sum   3.9860
    3    C  MulP   1.9932  1.9932 sum   3.9863
    4    C  MulP   1.9825  1.9825 sum   3.9649
    5    C  MulP   1.9974  1.9974 sum   3.9947
    6    C  MulP   1.9858  1.9858 sum   3.9716
    7    C  MulP   1.9860  1.9860 sum   3.9720
    8    C  MulP   1.9971  1.9971 sum   3.9943
    9    C  MulP   1.9813  1.9813 sum   3.9626
   10    C  MulP   1.9905  1.9905 sum   3.9810
   11    C  MulP   1.9699  1.9699 sum   3.9398
   12    C  MulP   1.9905  1.9905 sum   3.9810
   13    C  MulP   1.9813  1.9813 sum   3.9627
   14    C  MulP   1.9860  1.9860 sum   3.9721
   15    C  MulP   1.9987  1.9987 sum   3.9974
   16    C  MulP   1.9860  1.9860 sum   3.9720
   17    C  MulP   1.9781  1.9781 sum   3.9563
   18    C  MulP   2.0975  2.0975 sum   4.1949
   19    C  MulP   2.0988  2.0988 sum   4.1976
   20    C  MulP   1.9781  1.9781 sum   3.9561
     ..........
     ......

 Sum of MulP: up   =   208.00000 down          =   208.00000
              total=   416.00000 ideal(neutral)=   416.00000
<DFT>  Total Spin Moment (muB) =  0.000000000000
<DFT>  Mixing_weight= 0.050000000000
<DFT>  Uele   = -165.069606755054  dUele     =   1.000000000000
<DFT>  NormRD =    1.000000000000  Criterion =   0.000000010000

******************* MD= 1  SCF= 2 *******************
<Poisson>  Poisson's equation using FFT...
<Set_Hamiltonian>  Hamiltonian matrix for VNA+dVH+Vxc...
<Band>  Solving the eigenvalue problem...
 KGrids1:  -0.43750  -0.31250  -0.18750  -0.06250   0.06250   0.18750   0.31250   0.43750 
 KGrids2:  -0.43750  -0.31250  -0.18750  -0.06250   0.06250   0.18750   0.31250   0.43750 
 KGrids3:   0.00000 
<Band_DFT>  Eigen, time=8.469638
<Band_DFT>  DM, time=0.000000
    1    C  MulP   1.9826  1.9826 sum   3.9652
    2    C  MulP   1.9930  1.9930 sum   3.9860
    3    C  MulP   1.9932  1.9932 sum   3.9863
    4    C  MulP   1.9825  1.9825 sum   3.9649
    5    C  MulP   1.9974  1.9974 sum   3.9947
    6    C  MulP   1.9858  1.9858 sum   3.9716
    7    C  MulP   1.9860  1.9860 sum   3.9720
    8    C  MulP   1.9971  1.9971 sum   3.9943
    9    C  MulP   1.9813  1.9813 sum   3.9626
   10    C  MulP   1.9905  1.9905 sum   3.9810
   11    C  MulP   1.9699  1.9699 sum   3.9398
   12    C  MulP   1.9905  1.9905 sum   3.9810
   13    C  MulP   1.9813  1.9813 sum   3.9627
   14    C  MulP   1.9860  1.9860 sum   3.9721
   15    C  MulP   1.9987  1.9987 sum   3.9974
   16    C  MulP   1.9860  1.9860 sum   3.9720
   17    C  MulP   1.9781  1.9781 sum   3.9563
   18    C  MulP   2.0975  2.0975 sum   4.1949
   19    C  MulP   2.0988  2.0988 sum   4.1976
   20    C  MulP   1.9781  1.9781 sum   3.9561
     ..........
     ......

 Sum of MulP: up   =   208.00000 down          =   208.00000
              total=   416.00000 ideal(neutral)=   416.00000
<DFT>  Total Spin Moment (muB) =  0.000000000000
<DFT>  Mixing_weight= 0.010000000000
<DFT>  Uele   = -165.069606755054  dUele     =   0.000000000000
<DFT>  NormRD =    9.084554340156  Criterion =   0.000000010000

******************* MD= 1  SCF= 3 *******************
<Poisson>  Poisson's equation using FFT...
<Set_Hamiltonian>  Hamiltonian matrix for VNA+dVH+Vxc...
<Band>  Solving the eigenvalue problem...
 KGrids1:  -0.43750  -0.31250  -0.18750  -0.06250   0.06250   0.18750   0.31250   0.43750 
 KGrids2:  -0.43750  -0.31250  -0.18750  -0.06250   0.06250   0.18750   0.31250   0.43750 
 KGrids3:   0.00000 
<Band_DFT>  Eigen, time=8.533988
<Band_DFT>  DM, time=0.000000
    1    C  MulP   1.9831  1.9831 sum   3.9662
    2    C  MulP   1.9931  1.9931 sum   3.9862
    3    C  MulP   1.9933  1.9933 sum   3.9866
    4    C  MulP   1.9829  1.9829 sum   3.9659
    5    C  MulP   1.9974  1.9974 sum   3.9949
    6    C  MulP   1.9861  1.9861 sum   3.9722
    7    C  MulP   1.9863  1.9863 sum   3.9726
    8    C  MulP   1.9972  1.9972 sum   3.9945
    9    C  MulP   1.9818  1.9818 sum   3.9636
   10    C  MulP   1.9903  1.9903 sum   3.9806
   11    C  MulP   1.9703  1.9703 sum   3.9406
   12    C  MulP   1.9903  1.9903 sum   3.9806
   13    C  MulP   1.9818  1.9818 sum   3.9636
   14    C  MulP   1.9863  1.9863 sum   3.9727
   15    C  MulP   1.9987  1.9987 sum   3.9973
   16    C  MulP   1.9863  1.9863 sum   3.9726
   17    C  MulP   1.9787  1.9787 sum   3.9575
   18    C  MulP   2.0957  2.0957 sum   4.1914
   19    C  MulP   2.0968  2.0968 sum   4.1935
   20    C  MulP   1.9787  1.9787 sum   3.9573
     ..........
     ......

 Sum of MulP: up   =   208.00000 down          =   208.00000
              total=   416.00000 ideal(neutral)=   416.00000
<DFT>  Total Spin Moment (muB) =  0.000000000000
<DFT>  Mixing_weight= 0.300000000000
<DFT>  Uele   = -165.478256676181  dUele     =   0.408649921127
<DFT>  NormRD =    8.981533857152  Criterion =   0.000000010000

******************* MD= 1  SCF= 4 *******************
<Poisson>  Poisson's equation using FFT...
<Set_Hamiltonian>  Hamiltonian matrix for VNA+dVH+Vxc...
<Band>  Solving the eigenvalue problem...
 KGrids1:  -0.43750  -0.31250  -0.18750  -0.06250   0.06250   0.18750   0.31250   0.43750 
 KGrids2:  -0.43750  -0.31250  -0.18750  -0.06250   0.06250   0.18750   0.31250   0.43750 
 KGrids3:   0.00000 
<Band_DFT>  Eigen, time=8.527638
<Band_DFT>  DM, time=0.000000
    1    C  MulP   1.9946  1.9946 sum   3.9893
    2    C  MulP   1.9958  1.9958 sum   3.9916
    3    C  MulP   1.9960  1.9960 sum   3.9920
    4    C  MulP   1.9944  1.9944 sum   3.9888
    5    C  MulP   1.9991  1.9991 sum   3.9981
    6    C  MulP   1.9937  1.9937 sum   3.9874
    7    C  MulP   1.9939  1.9939 sum   3.9878
    8    C  MulP   1.9989  1.9989 sum   3.9978
    9    C  MulP   1.9945  1.9945 sum   3.9890
   10    C  MulP   1.9843  1.9843 sum   3.9687
   11    C  MulP   1.9799  1.9799 sum   3.9598
   12    C  MulP   1.9840  1.9840 sum   3.9680
   13    C  MulP   1.9942  1.9942 sum   3.9885
   14    C  MulP   1.9939  1.9939 sum   3.9878
   15    C  MulP   1.9967  1.9967 sum   3.9933
   16    C  MulP   1.9939  1.9939 sum   3.9878
   17    C  MulP   1.9963  1.9963 sum   3.9927
   18    C  MulP   2.0546  2.0546 sum   4.1092
   19    C  MulP   2.0493  2.0493 sum   4.0985
   20    C  MulP   1.9958  1.9958 sum   3.9916
     ..........
     ......

 Sum of MulP: up   =   208.00000 down          =   208.00000
              total=   416.00000 ideal(neutral)=   416.00000
<DFT>  Total Spin Moment (muB) =  0.000000000000
<DFT>  Mixing_weight= 0.300000000000
<DFT>  Uele   = -177.552046210195  dUele     =  12.073789534014
<DFT>  NormRD =    5.968217850157  Criterion =   0.000000010000

******************* MD= 1  SCF= 5 *******************
<Poisson>  Poisson's equation using FFT...
<Set_Hamiltonian>  Hamiltonian matrix for VNA+dVH+Vxc...
<Band>  Solving the eigenvalue problem...
 KGrids1:  -0.43750  -0.31250  -0.18750  -0.06250   0.06250   0.18750   0.31250   0.43750 
 KGrids2:  -0.43750  -0.31250  -0.18750  -0.06250   0.06250   0.18750   0.31250   0.43750 
 KGrids3:   0.00000 
<Band_DFT>  Eigen, time=8.531859
<Band_DFT>  DM, time=0.000000
    1    C  MulP   1.9947  1.9947 sum   3.9895
    2    C  MulP   1.9939  1.9939 sum   3.9878
    3    C  MulP   1.9938  1.9938 sum   3.9876
    4    C  MulP   1.9948  1.9948 sum   3.9897
    5    C  MulP   1.9988  1.9988 sum   3.9976
    6    C  MulP   1.9952  1.9952 sum   3.9903
    7    C  MulP   1.9954  1.9954 sum   3.9908
    8    C  MulP   1.9985  1.9985 sum   3.9971
    9    C  MulP   1.9944  1.9944 sum   3.9888
   10    C  MulP   1.9779  1.9779 sum   3.9558
   11    C  MulP   1.9741  1.9741 sum   3.9482
   12    C  MulP   1.9793  1.9793 sum   3.9586
   13    C  MulP   1.9954  1.9954 sum   3.9908
   14    C  MulP   1.9955  1.9955 sum   3.9909
   15    C  MulP   1.9978  1.9978 sum   3.9956
   16    C  MulP   1.9954  1.9954 sum   3.9908
   17    C  MulP   1.9967  1.9967 sum   3.9933
   18    C  MulP   2.0449  2.0449 sum   4.0898
   19    C  MulP   2.0724  2.0724 sum   4.1449
   20    C  MulP   1.9974  1.9974 sum   3.9948
     ..........
     ......

 Sum of MulP: up   =   208.00000 down          =   208.00000
              total=   416.00000 ideal(neutral)=   416.00000
<DFT>  Total Spin Moment (muB) =  0.000000000000
<DFT>  Mixing_weight= 0.300000000000
<DFT>  Uele   = -184.748445439092  dUele     =   7.196399228896
<DFT>  NormRD =    4.001633832651  Criterion =   0.000000010000

******************* MD= 1  SCF= 6 *******************
<Poisson>  Poisson's equation using FFT...
<Set_Hamiltonian>  Hamiltonian matrix for VNA+dVH+Vxc...
<Band>  Solving the eigenvalue problem...
 KGrids1:  -0.43750  -0.31250  -0.18750  -0.06250   0.06250   0.18750   0.31250   0.43750 
 KGrids2:  -0.43750  -0.31250  -0.18750  -0.06250   0.06250   0.18750   0.31250   0.43750 
 KGrids3:   0.00000 
<Band_DFT>  Eigen, time=8.553970
<Band_DFT>  DM, time=0.000000
    1    C  MulP   1.9966  1.9966 sum   3.9932
    2    C  MulP   1.9934  1.9934 sum   3.9867
    3    C  MulP   1.9952  1.9952 sum   3.9905
    4    C  MulP   1.9948  1.9948 sum   3.9896
    5    C  MulP   1.9990  1.9990 sum   3.9981
    6    C  MulP   1.9964  1.9964 sum   3.9928
    7    C  MulP   1.9963  1.9963 sum   3.9926
    8    C  MulP   1.9994  1.9994 sum   3.9988
    9    C  MulP   1.9984  1.9984 sum   3.9968
   10    C  MulP   1.9837  1.9837 sum   3.9674
   11    C  MulP   1.9742  1.9742 sum   3.9484
   12    C  MulP   1.9747  1.9747 sum   3.9493
   13    C  MulP   1.9927  1.9927 sum   3.9854
   14    C  MulP   1.9961  1.9961 sum   3.9922
   15    C  MulP   1.9983  1.9983 sum   3.9966
   16    C  MulP   1.9963  1.9963 sum   3.9926
   17    C  MulP   1.9999  1.9999 sum   3.9998
   18    C  MulP   2.1510  2.1510 sum   4.3020
   19    C  MulP   1.9929  1.9929 sum   3.9859
   20    C  MulP   1.9940  1.9940 sum   3.9880
     ..........
     ......

 Sum of MulP: up   =   208.00000 down          =   208.00000
              total=   416.00000 ideal(neutral)=   416.00000
<DFT>  Total Spin Moment (muB) =  0.000000000000
<DFT>  Mixing_weight= 0.300000000000
<DFT>  Uele   = -189.425116796101  dUele     =   4.676671357010
<DFT>  NormRD =    2.817358893360  Criterion =   0.000000010000

******************* MD= 1  SCF= 7 *******************
<Poisson>  Poisson's equation using FFT...
<Set_Hamiltonian>  Hamiltonian matrix for VNA+dVH+Vxc...
<Band>  Solving the eigenvalue problem...
 KGrids1:  -0.43750  -0.31250  -0.18750  -0.06250   0.06250   0.18750   0.31250   0.43750 
 KGrids2:  -0.43750  -0.31250  -0.18750  -0.06250   0.06250   0.18750   0.31250   0.43750 
 KGrids3:   0.00000 
<Band_DFT>  Eigen, time=8.541040
<Band_DFT>  DM, time=0.000000
    1    C  MulP   1.9921  1.9921 sum   3.9842
    2    C  MulP   1.9951  1.9951 sum   3.9901
    3    C  MulP   1.9901  1.9901 sum   3.9801
    4    C  MulP   1.9958  1.9958 sum   3.9916
    5    C  MulP   1.9988  1.9988 sum   3.9976
    6    C  MulP   1.9960  1.9960 sum   3.9921
    7    C  MulP   1.9951  1.9951 sum   3.9901
    8    C  MulP   1.9977  1.9977 sum   3.9955
    9    C  MulP   1.9887  1.9887 sum   3.9773
   10    C  MulP   1.9607  1.9607 sum   3.9213
   11    C  MulP   1.9632  1.9632 sum   3.9264
   12    C  MulP   1.9824  1.9824 sum   3.9647
   13    C  MulP   2.0024  2.0024 sum   4.0049
   14    C  MulP   1.9973  1.9973 sum   3.9945
   15    C  MulP   1.9976  1.9976 sum   3.9952
   16    C  MulP   1.9951  1.9951 sum   3.9901
   17    C  MulP   1.9905  1.9905 sum   3.9810
   18    C  MulP   1.8838  1.8838 sum   3.7677
   19    C  MulP   2.2567  2.2567 sum   4.5135
   20    C  MulP   2.0103  2.0103 sum   4.0206
     ..........
     ......

 Sum of MulP: up   =   208.00000 down          =   208.00000
              total=   416.00000 ideal(neutral)=   416.00000
<DFT>  Total Spin Moment (muB) =  0.000000000000
<DFT>  Mixing_weight= 0.300000000000
<DFT>  Uele   = -192.523197760827  dUele     =   3.098080964726
<DFT>  NormRD =    2.527810398879  Criterion =   0.000000010000

******************* MD= 1  SCF= 8 *******************
<Poisson>  Poisson's equation using FFT...
<Set_Hamiltonian>  Hamiltonian matrix for VNA+dVH+Vxc...
<Band>  Solving the eigenvalue problem...
 KGrids1:  -0.43750  -0.31250  -0.18750  -0.06250   0.06250   0.18750   0.31250   0.43750 
 KGrids2:  -0.43750  -0.31250  -0.18750  -0.06250   0.06250   0.18750   0.31250   0.43750 
 KGrids3:   0.00000 
<Band_DFT>  Eigen, time=8.528855
<Band_DFT>  DM, time=0.000000
    1    C  MulP   1.9951  1.9951 sum   3.9902
    2    C  MulP   1.9871  1.9871 sum   3.9742
    3    C  MulP   1.9952  1.9952 sum   3.9905
    4    C  MulP   1.9921  1.9921 sum   3.9843
    5    C  MulP   1.9954  1.9954 sum   3.9907
    6    C  MulP   1.9951  1.9951 sum   3.9901
    7    C  MulP   1.9983  1.9983 sum   3.9965
    8    C  MulP   1.9981  1.9981 sum   3.9962
    9    C  MulP   2.0019  2.0019 sum   4.0038
   10    C  MulP   2.0009  2.0009 sum   4.0018
   11    C  MulP   1.9957  1.9957 sum   3.9914
   12    C  MulP   1.9637  1.9637 sum   3.9274
   13    C  MulP   1.9734  1.9734 sum   3.9468
   14    C  MulP   1.9953  1.9953 sum   3.9906
   15    C  MulP   1.9946  1.9946 sum   3.9892
   16    C  MulP   1.9983  1.9983 sum   3.9965
   17    C  MulP   2.0222  2.0222 sum   4.0444
   18    C  MulP   2.4405  2.4405 sum   4.8810
   19    C  MulP   1.5680  1.5680 sum   3.1360
   20    C  MulP   1.9652  1.9652 sum   3.9305
     ..........
     ......

 Sum of MulP: up   =   208.00000 down          =   208.00000
              total=   416.00000 ideal(neutral)=   416.00000
<DFT>  Total Spin Moment (muB) =  0.000000000000
<DFT>  Mixing_weight= 0.075079825109
<DFT>  Uele   = -194.818203067400  dUele     =   2.295005306572
<DFT>  NormRD =    4.375191596624  Criterion =   0.000000010000

******************* MD= 1  SCF= 9 *******************
<Poisson>  Poisson's equation using FFT...
<Set_Hamiltonian>  Hamiltonian matrix for VNA+dVH+Vxc...
<Band>  Solving the eigenvalue problem...
 KGrids1:  -0.43750  -0.31250  -0.18750  -0.06250   0.06250   0.18750   0.31250   0.43750 
 KGrids2:  -0.43750  -0.31250  -0.18750  -0.06250   0.06250   0.18750   0.31250   0.43750 
 KGrids3:   0.00000 
<Band_DFT>  Eigen, time=8.543761
<Band_DFT>  DM, time=0.000000
    1    C  MulP   2.0002  2.0002 sum   4.0004
    2    C  MulP   1.9963  1.9963 sum   3.9925
    3    C  MulP   2.0002  2.0002 sum   4.0004
    4    C  MulP   1.9971  1.9971 sum   3.9942
    5    C  MulP   2.0012  2.0012 sum   4.0025
    6    C  MulP   1.9977  1.9977 sum   3.9954
    7    C  MulP   1.9979  1.9979 sum   3.9958
    8    C  MulP   2.0012  2.0012 sum   4.0025
    9    C  MulP   2.0007  2.0007 sum   4.0014
   10    C  MulP   1.9909  1.9909 sum   3.9819
   11    C  MulP   1.9682  1.9682 sum   3.9363
   12    C  MulP   1.9753  1.9753 sum   3.9505
   13    C  MulP   1.9956  1.9956 sum   3.9912
   14    C  MulP   1.9974  1.9974 sum   3.9948
   15    C  MulP   1.9999  1.9999 sum   3.9998
   16    C  MulP   1.9979  1.9979 sum   3.9958
   17    C  MulP   1.9970  1.9970 sum   3.9941
   18    C  MulP   2.1598  2.1598 sum   4.3197
   19    C  MulP   2.0147  2.0147 sum   4.0295
   20    C  MulP   1.9955  1.9955 sum   3.9910
     ..........
     ......

 Sum of MulP: up   =   208.00000 down          =   208.00000
              total=   416.00000 ideal(neutral)=   416.00000
<DFT>  Total Spin Moment (muB) =  0.000000000000
<DFT>  Mixing_weight= 0.085821523752
<DFT>  Uele   = -195.076067143697  dUele     =   0.257864076298
<DFT>  NormRD =    1.547873438207  Criterion =   0.000000010000

******************* MD= 1  SCF=10 *******************
<Poisson>  Poisson's equation using FFT...
<Set_Hamiltonian>  Hamiltonian matrix for VNA+dVH+Vxc...
<Band>  Solving the eigenvalue problem...
 KGrids1:  -0.43750  -0.31250  -0.18750  -0.06250   0.06250   0.18750   0.31250   0.43750 
 KGrids2:  -0.43750  -0.31250  -0.18750  -0.06250   0.06250   0.18750   0.31250   0.43750 
 KGrids3:   0.00000 
<Band_DFT>  Eigen, time=8.558514
<Band_DFT>  DM, time=0.000000
    1    C  MulP   1.9978  1.9978 sum   3.9957
    2    C  MulP   1.9978  1.9978 sum   3.9956
    3    C  MulP   1.9971  1.9971 sum   3.9942
    4    C  MulP   1.9980  1.9980 sum   3.9959
    5    C  MulP   2.0011  2.0011 sum   4.0023
    6    C  MulP   1.9972  1.9972 sum   3.9944
    7    C  MulP   1.9979  1.9979 sum   3.9958
    8    C  MulP   2.0004  2.0004 sum   4.0008
    9    C  MulP   1.9947  1.9947 sum   3.9893
   10    C  MulP   1.9783  1.9783 sum   3.9565
   11    C  MulP   1.9658  1.9658 sum   3.9315
   12    C  MulP   1.9809  1.9809 sum   3.9618
   13    C  MulP   1.9968  1.9968 sum   3.9936
   14    C  MulP   1.9973  1.9973 sum   3.9946
   15    C  MulP   1.9999  1.9999 sum   3.9998
   16    C  MulP   1.9979  1.9979 sum   3.9958
   17    C  MulP   1.9957  1.9957 sum   3.9914
   18    C  MulP   1.9925  1.9925 sum   3.9850
   19    C  MulP   2.0772  2.0772 sum   4.1543
   20    C  MulP   1.9955  1.9955 sum   3.9910
     ..........
     ......

 Sum of MulP: up   =   208.00000 down          =   208.00000
              total=   416.00000 ideal(neutral)=   416.00000
<DFT>  Total Spin Moment (muB) =  0.000000000000
<DFT>  Mixing_weight= 0.203574441302
<DFT>  Uele   = -195.406872295928  dUele     =   0.330805152231
<DFT>  NormRD =    1.177225498153  Criterion =   0.000000010000

******************* MD= 1  SCF=11 *******************
<Poisson>  Poisson's equation using FFT...
<Set_Hamiltonian>  Hamiltonian matrix for VNA+dVH+Vxc...
<Band>  Solving the eigenvalue problem...
 KGrids1:  -0.43750  -0.31250  -0.18750  -0.06250   0.06250   0.18750   0.31250   0.43750 
 KGrids2:  -0.43750  -0.31250  -0.18750  -0.06250   0.06250   0.18750   0.31250   0.43750 
 KGrids3:   0.00000 
<Band_DFT>  Eigen, time=8.540008
<Band_DFT>  DM, time=0.000000
    1    C  MulP   1.9986  1.9986 sum   3.9971
    2    C  MulP   1.9942  1.9942 sum   3.9884
    3    C  MulP   1.9976  1.9976 sum   3.9952
    4    C  MulP   1.9957  1.9957 sum   3.9914
    5    C  MulP   2.0002  2.0002 sum   4.0004
    6    C  MulP   1.9975  1.9975 sum   3.9950
    7    C  MulP   1.9976  1.9976 sum   3.9951
    8    C  MulP   2.0004  2.0004 sum   4.0009
    9    C  MulP   2.0001  2.0001 sum   4.0003
   10    C  MulP   1.9867  1.9867 sum   3.9735
   11    C  MulP   1.9706  1.9706 sum   3.9413
   12    C  MulP   1.9729  1.9729 sum   3.9458
   13    C  MulP   1.9920  1.9920 sum   3.9840
   14    C  MulP   1.9970  1.9970 sum   3.9941
   15    C  MulP   1.9998  1.9998 sum   3.9996
   16    C  MulP   1.9976  1.9976 sum   3.9952
   17    C  MulP   2.0005  2.0005 sum   4.0011
   18    C  MulP   2.1903  2.1903 sum   4.3805
   19    C  MulP   1.9611  1.9611 sum   3.9223
   20    C  MulP   1.9925  1.9925 sum   3.9850
     ..........
     ......

 Sum of MulP: up   =   208.00000 down          =   208.00000
              total=   416.00000 ideal(neutral)=   416.00000
<DFT>  Total Spin Moment (muB) =  0.000000000000
<DFT>  Mixing_weight= 0.084302483237
<DFT>  Uele   = -196.172966782741  dUele     =   0.766094486812
<DFT>  NormRD =    1.400259896922  Criterion =   0.000000010000

******************* MD= 1  SCF=12 *******************
<Poisson>  Poisson's equation using FFT...
<Set_Hamiltonian>  Hamiltonian matrix for VNA+dVH+Vxc...
<Band>  Solving the eigenvalue problem...
 KGrids1:  -0.43750  -0.31250  -0.18750  -0.06250   0.06250   0.18750   0.31250   0.43750 
 KGrids2:  -0.43750  -0.31250  -0.18750  -0.06250   0.06250   0.18750   0.31250   0.43750 
 KGrids3:   0.00000 
<Band_DFT>  Eigen, time=8.542288
<Band_DFT>  DM, time=0.000000
    1    C  MulP   1.9966  1.9966 sum   3.9932
    2    C  MulP   1.9964  1.9964 sum   3.9927
    3    C  MulP   1.9956  1.9956 sum   3.9911
    4    C  MulP   1.9972  1.9972 sum   3.9944
    5    C  MulP   2.0004  2.0004 sum   4.0008
    6    C  MulP   1.9970  1.9970 sum   3.9940
    7    C  MulP   1.9974  1.9974 sum   3.9948
    8    C  MulP   1.9999  1.9999 sum   3.9998
    9    C  MulP   1.9937  1.9937 sum   3.9874
   10    C  MulP   1.9746  1.9746 sum   3.9492
   11    C  MulP   1.9642  1.9642 sum   3.9284
   12    C  MulP   1.9789  1.9789 sum   3.9577
   13    C  MulP   1.9972  1.9972 sum   3.9944
   14    C  MulP   1.9975  1.9975 sum   3.9950
   15    C  MulP   1.9998  1.9998 sum   3.9995
   16    C  MulP   1.9974  1.9974 sum   3.9948
   17    C  MulP   1.9949  1.9949 sum   3.9898
   18    C  MulP   1.9979  1.9979 sum   3.9959
   19    C  MulP   2.1042  2.1042 sum   4.2085
   20    C  MulP   1.9987  1.9987 sum   3.9974
     ..........
     ......

 Sum of MulP: up   =   208.00000 down          =   208.00000
              total=   416.00000 ideal(neutral)=   416.00000
<DFT>  Total Spin Moment (muB) =  0.000000000000
<DFT>  Mixing_weight= 0.149944187898
<DFT>  Uele   = -196.441614969984  dUele     =   0.268648187243
<DFT>  NormRD =    0.926475113697  Criterion =   0.000000010000

******************* MD= 1  SCF=13 *******************
<Poisson>  Poisson's equation using FFT...
<Set_Hamiltonian>  Hamiltonian matrix for VNA+dVH+Vxc...
<Band>  Solving the eigenvalue problem...
 KGrids1:  -0.43750  -0.31250  -0.18750  -0.06250   0.06250   0.18750   0.31250   0.43750 
 KGrids2:  -0.43750  -0.31250  -0.18750  -0.06250   0.06250   0.18750   0.31250   0.43750 
 KGrids3:   0.00000 
<Band_DFT>  Eigen, time=8.540917
<Band_DFT>  DM, time=0.000001
    1    C  MulP   1.9982  1.9982 sum   3.9963
    2    C  MulP   1.9946  1.9946 sum   3.9892
    3    C  MulP   1.9967  1.9967 sum   3.9935
    4    C  MulP   1.9960  1.9960 sum   3.9919
    5    C  MulP   2.0001  2.0001 sum   4.0002
    6    C  MulP   1.9974  1.9974 sum   3.9949
    7    C  MulP   1.9975  1.9975 sum   3.9950
    8    C  MulP   2.0003  2.0003 sum   4.0006
    9    C  MulP   1.9993  1.9993 sum   3.9985
   10    C  MulP   1.9843  1.9843 sum   3.9687
   11    C  MulP   1.9700  1.9700 sum   3.9400
   12    C  MulP   1.9740  1.9740 sum   3.9481
   13    C  MulP   1.9922  1.9922 sum   3.9844
   14    C  MulP   1.9971  1.9971 sum   3.9942
   15    C  MulP   1.9997  1.9997 sum   3.9994
   16    C  MulP   1.9975  1.9975 sum   3.9951
   17    C  MulP   1.9998  1.9998 sum   3.9997
   18    C  MulP   2.1648  2.1648 sum   4.3296
   19    C  MulP   1.9700  1.9700 sum   3.9399
   20    C  MulP   1.9924  1.9924 sum   3.9848
     ..........
     ......

 Sum of MulP: up   =   208.00000 down          =   208.00000
              total=   416.00000 ideal(neutral)=   416.00000
<DFT>  Total Spin Moment (muB) =  0.000000000000
<DFT>  Mixing_weight= 0.061423274272
<DFT>  Uele   = -196.900687594639  dUele     =   0.459072624655
<DFT>  NormRD =    1.112218770331  Criterion =   0.000000010000

******************* MD= 1  SCF=14 *******************
<Poisson>  Poisson's equation using FFT...
<Set_Hamiltonian>  Hamiltonian matrix for VNA+dVH+Vxc...
<Band>  Solving the eigenvalue problem...
 KGrids1:  -0.43750  -0.31250  -0.18750  -0.06250   0.06250   0.18750   0.31250   0.43750 
 KGrids2:  -0.43750  -0.31250  -0.18750  -0.06250   0.06250   0.18750   0.31250   0.43750 
 KGrids3:   0.00000 
<Band_DFT>  Eigen, time=8.541614
<Band_DFT>  DM, time=0.000000
    1    C  MulP   1.9966  1.9966 sum   3.9933
    2    C  MulP   1.9959  1.9959 sum   3.9917
    3    C  MulP   1.9955  1.9955 sum   3.9910
    4    C  MulP   1.9969  1.9969 sum   3.9938
    5    C  MulP   2.0003  2.0003 sum   4.0007
    6    C  MulP   1.9971  1.9971 sum   3.9941
    7    C  MulP   1.9974  1.9974 sum   3.9949
    8    C  MulP   1.9999  1.9999 sum   3.9997
    9    C  MulP   1.9945  1.9945 sum   3.9889
   10    C  MulP   1.9753  1.9753 sum   3.9506
   11    C  MulP   1.9649  1.9649 sum   3.9298
   12    C  MulP   1.9780  1.9780 sum   3.9560
   13    C  MulP   1.9961  1.9961 sum   3.9923
   14    C  MulP   1.9974  1.9974 sum   3.9949
   15    C  MulP   1.9997  1.9997 sum   3.9993
   16    C  MulP   1.9974  1.9974 sum   3.9949
   17    C  MulP   1.9957  1.9957 sum   3.9914
   18    C  MulP   2.0224  2.0224 sum   4.0447
   19    C  MulP   2.0767  2.0767 sum   4.1534
   20    C  MulP   1.9972  1.9972 sum   3.9944
     ..........
     ......

 Sum of MulP: up   =   208.00000 down          =   208.00000
              total=   416.00000 ideal(neutral)=   416.00000
<DFT>  Total Spin Moment (muB) =  0.000000000000
<DFT>  Mixing_weight= 0.095401103636
<DFT>  Uele   = -197.062404566614  dUele     =   0.161716971975
<DFT>  NormRD =    0.663760396104  Criterion =   0.000000010000

******************* MD= 1  SCF=15 *******************
<Poisson>  Poisson's equation using FFT...
<Set_Hamiltonian>  Hamiltonian matrix for VNA+dVH+Vxc...
<Band>  Solving the eigenvalue problem...
 KGrids1:  -0.43750  -0.31250  -0.18750  -0.06250   0.06250   0.18750   0.31250   0.43750 
 KGrids2:  -0.43750  -0.31250  -0.18750  -0.06250   0.06250   0.18750   0.31250   0.43750 
 KGrids3:   0.00000 
<Band_DFT>  Eigen, time=8.553524
<Band_DFT>  DM, time=0.000000
    1    C  MulP   1.9973  1.9973 sum   3.9947
    2    C  MulP   1.9952  1.9952 sum   3.9903
    3    C  MulP   1.9961  1.9961 sum   3.9921
    4    C  MulP   1.9965  1.9965 sum   3.9930
    5    C  MulP   2.0002  2.0002 sum   4.0004
    6    C  MulP   1.9972  1.9972 sum   3.9944
    7    C  MulP   1.9974  1.9974 sum   3.9948
    8    C  MulP   2.0001  2.0001 sum   4.0001
    9    C  MulP   1.9967  1.9967 sum   3.9935
   10    C  MulP   1.9795  1.9795 sum   3.9590
   11    C  MulP   1.9667  1.9667 sum   3.9334
   12    C  MulP   1.9763  1.9763 sum   3.9526
   13    C  MulP   1.9949  1.9949 sum   3.9899
   14    C  MulP   1.9974  1.9974 sum   3.9947
   15    C  MulP   1.9996  1.9996 sum   3.9993
   16    C  MulP   1.9974  1.9974 sum   3.9949
   17    C  MulP   1.9967  1.9967 sum   3.9935
   18    C  MulP   2.0897  2.0897 sum   4.1794
   19    C  MulP   2.0411  2.0411 sum   4.0823
   20    C  MulP   1.9960  1.9960 sum   3.9919
     ..........
     ......

 Sum of MulP: up   =   208.00000 down          =   208.00000
              total=   416.00000 ideal(neutral)=   416.00000
<DFT>  Total Spin Moment (muB) =  0.000000000000
<DFT>  Mixing_weight= 0.030000000000
<DFT>  Uele   = -197.307848935728  dUele     =   0.245444369115
<DFT>  NormRD =    0.593382788937  Criterion =   0.000000010000

******************* MD= 1  SCF=16 *******************
<Poisson>  Poisson's equation using FFT...
<Set_Hamiltonian>  Hamiltonian matrix for VNA+dVH+Vxc...
<Band>  Solving the eigenvalue problem...
 KGrids1:  -0.43750  -0.31250  -0.18750  -0.06250   0.06250   0.18750   0.31250   0.43750 
 KGrids2:  -0.43750  -0.31250  -0.18750  -0.06250   0.06250   0.18750   0.31250   0.43750 
 KGrids3:   0.00000 
<Band_DFT>  Eigen, time=8.546730
<Band_DFT>  DM, time=0.000000
    1    C  MulP   1.9952  1.9952 sum   3.9904
    2    C  MulP   1.9961  1.9961 sum   3.9922
    3    C  MulP   1.9954  1.9954 sum   3.9908
    4    C  MulP   1.9976  1.9976 sum   3.9952
    5    C  MulP   2.0010  2.0010 sum   4.0020
    6    C  MulP   1.9980  1.9980 sum   3.9960
    7    C  MulP   1.9981  1.9981 sum   3.9962
    8    C  MulP   1.9999  1.9999 sum   3.9998
    9    C  MulP   1.9919  1.9919 sum   3.9838
   10    C  MulP   1.9685  1.9685 sum   3.9370
   11    C  MulP   1.9613  1.9613 sum   3.9226
   12    C  MulP   1.9763  1.9763 sum   3.9526
   13    C  MulP   1.9975  1.9975 sum   3.9950
   14    C  MulP   1.9987  1.9987 sum   3.9973
   15    C  MulP   1.9999  1.9999 sum   3.9997
   16    C  MulP   1.9975  1.9975 sum   3.9950
   17    C  MulP   1.9965  1.9965 sum   3.9931
   18    C  MulP   1.9685  1.9685 sum   3.9371
   19    C  MulP   2.0758  2.0758 sum   4.1515
   20    C  MulP   2.0014  2.0014 sum   4.0028
     ..........
     ......

 Sum of MulP: up   =   208.00000 down          =   208.00000
              total=   416.00000 ideal(neutral)=   416.00000
<DFT>  Total Spin Moment (muB) =  0.000000000000
<DFT>  Mixing_weight= 0.030000000000
<DFT>  Uele   = -199.753812444948  dUele     =   2.445963509220
<DFT>  NormRD =    0.804915095678  Criterion =   0.000000010000

******************* MD= 1  SCF=17 *******************
<Poisson>  Poisson's equation using FFT...
<Set_Hamiltonian>  Hamiltonian matrix for VNA+dVH+Vxc...
<Band>  Solving the eigenvalue problem...
 KGrids1:  -0.43750  -0.31250  -0.18750  -0.06250   0.06250   0.18750   0.31250   0.43750 
 KGrids2:  -0.43750  -0.31250  -0.18750  -0.06250   0.06250   0.18750   0.31250   0.43750 
 KGrids3:   0.00000 
<Band_DFT>  Eigen, time=8.546398
<Band_DFT>  DM, time=0.000000
    1    C  MulP   1.9985  1.9985 sum   3.9969
    2    C  MulP   1.9976  1.9976 sum   3.9952
    3    C  MulP   1.9917  1.9917 sum   3.9833
    4    C  MulP   2.0004  2.0004 sum   4.0008
    5    C  MulP   1.9997  1.9997 sum   3.9994
    6    C  MulP   1.9948  1.9948 sum   3.9896
    7    C  MulP   1.9971  1.9971 sum   3.9943
    8    C  MulP   1.9998  1.9998 sum   3.9996
    9    C  MulP   1.9974  1.9974 sum   3.9947
   10    C  MulP   1.9778  1.9778 sum   3.9555
   11    C  MulP   1.9877  1.9877 sum   3.9755
   12    C  MulP   1.9992  1.9992 sum   3.9984
   13    C  MulP   2.0073  2.0073 sum   4.0146
   14    C  MulP   1.9984  1.9984 sum   3.9969
   15    C  MulP   1.9990  1.9990 sum   3.9980
   16    C  MulP   1.9998  1.9998 sum   3.9997
   17    C  MulP   2.0062  2.0062 sum   4.0124
   18    C  MulP   2.0121  2.0121 sum   4.0241
   19    C  MulP   2.4023  2.4023 sum   4.8047
   20    C  MulP   2.0088  2.0088 sum   4.0176
     ..........
     ......

 Sum of MulP: up   =   208.00000 down          =   208.00000
              total=   416.00000 ideal(neutral)=   416.00000
<DFT>  Total Spin Moment (muB) =  0.000000000000
<DFT>  Mixing_weight= 0.030000000000
<DFT>  Uele   = -200.710601890756  dUele     =   0.956789445808
<DFT>  NormRD =    2.487611482925  Criterion =   0.000000010000

******************* MD= 1  SCF=18 *******************
<Poisson>  Poisson's equation using FFT...
<Set_Hamiltonian>  Hamiltonian matrix for VNA+dVH+Vxc...
<Band>  Solving the eigenvalue problem...
 KGrids1:  -0.43750  -0.31250  -0.18750  -0.06250   0.06250   0.18750   0.31250   0.43750 
 KGrids2:  -0.43750  -0.31250  -0.18750  -0.06250   0.06250   0.18750   0.31250   0.43750 
 KGrids3:   0.00000 
<Band_DFT>  Eigen, time=8.541640
<Band_DFT>  DM, time=0.000001
    1    C  MulP   1.9975  1.9975 sum   3.9950
    2    C  MulP   1.9972  1.9972 sum   3.9945
    3    C  MulP   1.9959  1.9959 sum   3.9917
    4    C  MulP   1.9964  1.9964 sum   3.9928
    5    C  MulP   2.0002  2.0002 sum   4.0005
    6    C  MulP   1.9975  1.9975 sum   3.9950
    7    C  MulP   1.9980  1.9980 sum   3.9959
    8    C  MulP   2.0002  2.0002 sum   4.0004
    9    C  MulP   1.9956  1.9956 sum   3.9913
   10    C  MulP   1.9756  1.9756 sum   3.9512
   11    C  MulP   1.9630  1.9630 sum   3.9260
   12    C  MulP   1.9750  1.9750 sum   3.9500
   13    C  MulP   1.9887  1.9887 sum   3.9774
   14    C  MulP   1.9968  1.9968 sum   3.9935
   15    C  MulP   1.9999  1.9999 sum   3.9998
   16    C  MulP   1.9987  1.9987 sum   3.9975
   17    C  MulP   2.0047  2.0047 sum   4.0094
   18    C  MulP   2.0211  2.0211 sum   4.0421
   19    C  MulP   1.8890  1.8890 sum   3.7779
   20    C  MulP   1.9858  1.9858 sum   3.9716
     ..........
     ......

 Sum of MulP: up   =   208.00000 down          =   208.00000
              total=   416.00000 ideal(neutral)=   416.00000
<DFT>  Total Spin Moment (muB) =  0.000000000000
<DFT>  Mixing_weight= 0.030000000000
<DFT>  Uele   = -201.006341033758  dUele     =   0.295739143003
<DFT>  NormRD =    1.486800376117  Criterion =   0.000000010000

******************* MD= 1  SCF=19 *******************
<Poisson>  Poisson's equation using FFT...
<Set_Hamiltonian>  Hamiltonian matrix for VNA+dVH+Vxc...
<Band>  Solving the eigenvalue problem...
 KGrids1:  -0.43750  -0.31250  -0.18750  -0.06250   0.06250   0.18750   0.31250   0.43750 
 KGrids2:  -0.43750  -0.31250  -0.18750  -0.06250   0.06250   0.18750   0.31250   0.43750 
 KGrids3:   0.00000 
<Band_DFT>  Eigen, time=8.550156
<Band_DFT>  DM, time=0.000000
    1    C  MulP   1.9969  1.9969 sum   3.9937
    2    C  MulP   1.9975  1.9975 sum   3.9951
    3    C  MulP   1.9956  1.9956 sum   3.9912
    4    C  MulP   1.9982  1.9982 sum   3.9965
    5    C  MulP   2.0005  2.0005 sum   4.0010
    6    C  MulP   1.9975  1.9975 sum   3.9949
    7    C  MulP   1.9975  1.9975 sum   3.9951
    8    C  MulP   2.0004  2.0004 sum   4.0007
    9    C  MulP   1.9944  1.9944 sum   3.9887
   10    C  MulP   1.9756  1.9756 sum   3.9512
   11    C  MulP   1.9671  1.9671 sum   3.9342
   12    C  MulP   1.9831  1.9831 sum   3.9662
   13    C  MulP   1.9964  1.9964 sum   3.9928
   14    C  MulP   1.9974  1.9974 sum   3.9948
   15    C  MulP   1.9999  1.9999 sum   3.9998
   16    C  MulP   1.9976  1.9976 sum   3.9952
   17    C  MulP   1.9944  1.9944 sum   3.9888
   18    C  MulP   1.9984  1.9984 sum   3.9968
   19    C  MulP   2.0927  2.0927 sum   4.1854
   20    C  MulP   1.9930  1.9930 sum   3.9859
     ..........
     ......

 Sum of MulP: up   =   208.00000 down          =   208.00000
              total=   416.00000 ideal(neutral)=   416.00000
<DFT>  Total Spin Moment (muB) =  0.000000000000
<DFT>  Mixing_weight= 0.030000000000
<DFT>  Uele   = -201.153087394164  dUele     =   0.146746360406
<DFT>  NormRD =    0.823469955463  Criterion =   0.000000010000

******************* MD= 1  SCF=20 *******************
<Poisson>  Poisson's equation using FFT...
<Set_Hamiltonian>  Hamiltonian matrix for VNA+dVH+Vxc...
<Band>  Solving the eigenvalue problem...
 KGrids1:  -0.43750  -0.31250  -0.18750  -0.06250   0.06250   0.18750   0.31250   0.43750 
 KGrids2:  -0.43750  -0.31250  -0.18750  -0.06250   0.06250   0.18750   0.31250   0.43750 
 KGrids3:   0.00000 
<Band_DFT>  Eigen, time=8.550039
<Band_DFT>  DM, time=0.000001
    1    C  MulP   1.9998  1.9998 sum   3.9997
    2    C  MulP   1.9966  1.9966 sum   3.9932
    3    C  MulP   1.9959  1.9959 sum   3.9917
    4    C  MulP   1.9956  1.9956 sum   3.9912
    5    C  MulP   2.0000  2.0000 sum   4.0001
    6    C  MulP   1.9973  1.9973 sum   3.9946
    7    C  MulP   1.9982  1.9982 sum   3.9964
    8    C  MulP   2.0015  2.0015 sum   4.0030
    9    C  MulP   1.9984  1.9984 sum   3.9967
   10    C  MulP   1.9828  1.9828 sum   3.9656
   11    C  MulP   1.9648  1.9648 sum   3.9296
   12    C  MulP   1.9760  1.9760 sum   3.9520
   13    C  MulP   1.9936  1.9936 sum   3.9871
   14    C  MulP   1.9962  1.9962 sum   3.9924
   15    C  MulP   1.9998  1.9998 sum   3.9996
   16    C  MulP   1.9984  1.9984 sum   3.9968
   17    C  MulP   1.9956  1.9956 sum   3.9911
   18    C  MulP   2.0593  2.0593 sum   4.1186
   19    C  MulP   2.0471  2.0471 sum   4.0942
   20    C  MulP   1.9918  1.9918 sum   3.9836
     ..........
     ......

 Sum of MulP: up   =   208.00000 down          =   208.00000
              total=   416.00000 ideal(neutral)=   416.00000
<DFT>  Total Spin Moment (muB) =  0.000000000000
<DFT>  Mixing_weight= 0.030000000000
<DFT>  Uele   = -201.511656777832  dUele     =   0.358569383668
<DFT>  NormRD =    0.319082858706  Criterion =   0.000000010000

******************* MD= 1  SCF=21 *******************
<Poisson>  Poisson's equation using FFT...
<Set_Hamiltonian>  Hamiltonian matrix for VNA+dVH+Vxc...
<Band>  Solving the eigenvalue problem...
 KGrids1:  -0.43750  -0.31250  -0.18750  -0.06250   0.06250   0.18750   0.31250   0.43750 
 KGrids2:  -0.43750  -0.31250  -0.18750  -0.06250   0.06250   0.18750   0.31250   0.43750 
 KGrids3:   0.00000 
<Band_DFT>  Eigen, time=8.559543
<Band_DFT>  DM, time=0.000000
    1    C  MulP   1.9980  1.9980 sum   3.9959
    2    C  MulP   1.9955  1.9955 sum   3.9911
    3    C  MulP   1.9962  1.9962 sum   3.9924
    4    C  MulP   1.9966  1.9966 sum   3.9932
    5    C  MulP   2.0001  2.0001 sum   4.0003
    6    C  MulP   1.9968  1.9968 sum   3.9936
    7    C  MulP   1.9971  1.9971 sum   3.9942
    8    C  MulP   2.0002  2.0002 sum   4.0005
    9    C  MulP   1.9970  1.9970 sum   3.9939
   10    C  MulP   1.9804  1.9804 sum   3.9609
   11    C  MulP   1.9633  1.9633 sum   3.9266
   12    C  MulP   1.9758  1.9758 sum   3.9516
   13    C  MulP   1.9965  1.9965 sum   3.9931
   14    C  MulP   1.9976  1.9976 sum   3.9953
   15    C  MulP   1.9998  1.9998 sum   3.9996
   16    C  MulP   1.9980  1.9980 sum   3.9959
   17    C  MulP   1.9976  1.9976 sum   3.9951
   18    C  MulP   2.0727  2.0727 sum   4.1454
   19    C  MulP   2.0809  2.0809 sum   4.1617
   20    C  MulP   1.9985  1.9985 sum   3.9970
     ..........
     ......

 Sum of MulP: up   =   208.00000 down          =   208.00000
              total=   416.00000 ideal(neutral)=   416.00000
<DFT>  Total Spin Moment (muB) =  0.000000000000
<DFT>  Mixing_weight= 0.030000000000
<DFT>  Uele   = -201.490675884655  dUele     =   0.020980893178
<DFT>  NormRD =    0.552319754476  Criterion =   0.000000010000

******************* MD= 1  SCF=22 *******************
<Poisson>  Poisson's equation using FFT...
<Set_Hamiltonian>  Hamiltonian matrix for VNA+dVH+Vxc...
<Band>  Solving the eigenvalue problem...
 KGrids1:  -0.43750  -0.31250  -0.18750  -0.06250   0.06250   0.18750   0.31250   0.43750 
 KGrids2:  -0.43750  -0.31250  -0.18750  -0.06250   0.06250   0.18750   0.31250   0.43750 
 KGrids3:   0.00000 
<Band_DFT>  Eigen, time=8.489846
<Band_DFT>  DM, time=0.000000
    1    C  MulP   1.9958  1.9958 sum   3.9917
    2    C  MulP   1.9961  1.9961 sum   3.9922
    3    C  MulP   1.9961  1.9961 sum   3.9921
    4    C  MulP   1.9981  1.9981 sum   3.9963
    5    C  MulP   2.0007  2.0007 sum   4.0014
    6    C  MulP   1.9974  1.9974 sum   3.9948
    7    C  MulP   1.9974  1.9974 sum   3.9948
    8    C  MulP   1.9996  1.9996 sum   3.9992
    9    C  MulP   1.9936  1.9936 sum   3.9872
   10    C  MulP   1.9751  1.9751 sum   3.9503
   11    C  MulP   1.9681  1.9681 sum   3.9362
   12    C  MulP   1.9815  1.9815 sum   3.9629
   13    C  MulP   1.9981  1.9981 sum   3.9963
   14    C  MulP   1.9982  1.9982 sum   3.9964
   15    C  MulP   1.9998  1.9998 sum   3.9996
   16    C  MulP   1.9974  1.9974 sum   3.9948
   17    C  MulP   1.9970  1.9970 sum   3.9939
   18    C  MulP   2.0227  2.0227 sum   4.0454
   19    C  MulP   2.1052  2.1052 sum   4.2104
   20    C  MulP   1.9988  1.9988 sum   3.9976
     ..........
     ......

 Sum of MulP: up   =   208.00000 down          =   208.00000
              total=   416.00000 ideal(neutral)=   416.00000
<DFT>  Total Spin Moment (muB) =  0.000000000000
<DFT>  Mixing_weight= 0.030000000000
<DFT>  Uele   = -201.473738143628  dUele     =   0.016937741026
<DFT>  NormRD =    0.338791590188  Criterion =   0.000000010000

******************* MD= 1  SCF=23 *******************
<Poisson>  Poisson's equation using FFT...
<Set_Hamiltonian>  Hamiltonian matrix for VNA+dVH+Vxc...
<Band>  Solving the eigenvalue problem...
 KGrids1:  -0.43750  -0.31250  -0.18750  -0.06250   0.06250   0.18750   0.31250   0.43750 
 KGrids2:  -0.43750  -0.31250  -0.18750  -0.06250   0.06250   0.18750   0.31250   0.43750 
 KGrids3:   0.00000 
<Band_DFT>  Eigen, time=8.493170
<Band_DFT>  DM, time=0.000000
    1    C  MulP   1.9968  1.9968 sum   3.9935
    2    C  MulP   1.9961  1.9961 sum   3.9922
    3    C  MulP   1.9958  1.9958 sum   3.9917
    4    C  MulP   1.9977  1.9977 sum   3.9953
    5    C  MulP   2.0004  2.0004 sum   4.0008
    6    C  MulP   1.9972  1.9972 sum   3.9945
    7    C  MulP   1.9974  1.9974 sum   3.9948
    8    C  MulP   1.9999  1.9999 sum   3.9998
    9    C  MulP   1.9954  1.9954 sum   3.9908
   10    C  MulP   1.9766  1.9766 sum   3.9531
   11    C  MulP   1.9683  1.9683 sum   3.9366
   12    C  MulP   1.9801  1.9801 sum   3.9603
   13    C  MulP   1.9964  1.9964 sum   3.9927
   14    C  MulP   1.9979  1.9979 sum   3.9957
   15    C  MulP   1.9998  1.9998 sum   3.9995
   16    C  MulP   1.9978  1.9978 sum   3.9957
   17    C  MulP   1.9987  1.9987 sum   3.9974
   18    C  MulP   2.0497  2.0497 sum   4.0993
   19    C  MulP   2.0705  2.0705 sum   4.1410
   20    C  MulP   1.9968  1.9968 sum   3.9937
     ..........
     ......

 Sum of MulP: up   =   208.00000 down          =   208.00000
              total=   416.00000 ideal(neutral)=   416.00000
<DFT>  Total Spin Moment (muB) =  0.000000000000
<DFT>  Mixing_weight= 0.030000000000
<DFT>  Uele   = -201.477382406841  dUele     =   0.003644263213
<DFT>  NormRD =    0.264560370118  Criterion =   0.000000010000

******************* MD= 1  SCF=24 *******************
<Poisson>  Poisson's equation using FFT...
<Set_Hamiltonian>  Hamiltonian matrix for VNA+dVH+Vxc...
<Band>  Solving the eigenvalue problem...
 KGrids1:  -0.43750  -0.31250  -0.18750  -0.06250   0.06250   0.18750   0.31250   0.43750 
 KGrids2:  -0.43750  -0.31250  -0.18750  -0.06250   0.06250   0.18750   0.31250   0.43750 
 KGrids3:   0.00000 
<Band_DFT>  Eigen, time=8.488786
<Band_DFT>  DM, time=0.000000
    1    C  MulP   1.9976  1.9976 sum   3.9952
    2    C  MulP   1.9959  1.9959 sum   3.9918
    3    C  MulP   1.9955  1.9955 sum   3.9910
    4    C  MulP   1.9968  1.9968 sum   3.9935
    5    C  MulP   2.0003  2.0003 sum   4.0005
    6    C  MulP   1.9974  1.9974 sum   3.9948
    7    C  MulP   1.9979  1.9979 sum   3.9958
    8    C  MulP   2.0007  2.0007 sum   4.0014
    9    C  MulP   1.9961  1.9961 sum   3.9922
   10    C  MulP   1.9769  1.9769 sum   3.9538
   11    C  MulP   1.9658  1.9658 sum   3.9316
   12    C  MulP   1.9773  1.9773 sum   3.9546
   13    C  MulP   1.9955  1.9955 sum   3.9911
   14    C  MulP   1.9976  1.9976 sum   3.9952
   15    C  MulP   1.9998  1.9998 sum   3.9995
   16    C  MulP   1.9980  1.9980 sum   3.9960
   17    C  MulP   1.9979  1.9979 sum   3.9957
   18    C  MulP   2.0424  2.0424 sum   4.0848
   19    C  MulP   2.0595  2.0595 sum   4.1190
   20    C  MulP   1.9974  1.9974 sum   3.9947
     ..........
     ......

 Sum of MulP: up   =   208.00000 down          =   208.00000
              total=   416.00000 ideal(neutral)=   416.00000
<DFT>  Total Spin Moment (muB) =  0.000000000000
<DFT>  Mixing_weight= 0.030000000000
<DFT>  Uele   = -201.480770123440  dUele     =   0.003387716599
<DFT>  NormRD =    0.160320887951  Criterion =   0.000000010000

******************* MD= 1  SCF=25 *******************
<Poisson>  Poisson's equation using FFT...
<Set_Hamiltonian>  Hamiltonian matrix for VNA+dVH+Vxc...
<Band>  Solving the eigenvalue problem...
 KGrids1:  -0.43750  -0.31250  -0.18750  -0.06250   0.06250   0.18750   0.31250   0.43750 
 KGrids2:  -0.43750  -0.31250  -0.18750  -0.06250   0.06250   0.18750   0.31250   0.43750 
 KGrids3:   0.00000 
<Band_DFT>  Eigen, time=8.489105
<Band_DFT>  DM, time=0.000000
    1    C  MulP   1.9980  1.9980 sum   3.9959
    2    C  MulP   1.9959  1.9959 sum   3.9918
    3    C  MulP   1.9957  1.9957 sum   3.9913
    4    C  MulP   1.9968  1.9968 sum   3.9937
    5    C  MulP   2.0004  2.0004 sum   4.0008
    6    C  MulP   1.9975  1.9975 sum   3.9949
    7    C  MulP   1.9979  1.9979 sum   3.9958
    8    C  MulP   2.0007  2.0007 sum   4.0013
    9    C  MulP   1.9967  1.9967 sum   3.9933
   10    C  MulP   1.9787  1.9787 sum   3.9574
   11    C  MulP   1.9674  1.9674 sum   3.9347
   12    C  MulP   1.9779  1.9779 sum   3.9559
   13    C  MulP   1.9958  1.9958 sum   3.9915
   14    C  MulP   1.9976  1.9976 sum   3.9951
   15    C  MulP   1.9998  1.9998 sum   3.9995
   16    C  MulP   1.9980  1.9980 sum   3.9960
   17    C  MulP   1.9974  1.9974 sum   3.9948
   18    C  MulP   2.0582  2.0582 sum   4.1164
   19    C  MulP   2.0654  2.0654 sum   4.1308
   20    C  MulP   1.9968  1.9968 sum   3.9937
     ..........
     ......

 Sum of MulP: up   =   208.00000 down          =   208.00000
              total=   416.00000 ideal(neutral)=   416.00000
<DFT>  Total Spin Moment (muB) =  0.000000000000
<DFT>  Mixing_weight= 0.030000000000
<DFT>  Uele   = -201.479570913534  dUele     =   0.001199209906
<DFT>  NormRD =    0.134257803035  Criterion =   0.000000010000

******************* MD= 1  SCF=26 *******************
<Poisson>  Poisson's equation using FFT...
<Set_Hamiltonian>  Hamiltonian matrix for VNA+dVH+Vxc...
<Band>  Solving the eigenvalue problem...
 KGrids1:  -0.43750  -0.31250  -0.18750  -0.06250   0.06250   0.18750   0.31250   0.43750 
 KGrids2:  -0.43750  -0.31250  -0.18750  -0.06250   0.06250   0.18750   0.31250   0.43750 
 KGrids3:   0.00000 
<Band_DFT>  Eigen, time=8.494061
<Band_DFT>  DM, time=0.000000
    1    C  MulP   1.9968  1.9968 sum   3.9936
    2    C  MulP   1.9955  1.9955 sum   3.9911
    3    C  MulP   1.9956  1.9956 sum   3.9912
    4    C  MulP   1.9969  1.9969 sum   3.9938
    5    C  MulP   2.0006  2.0006 sum   4.0011
    6    C  MulP   1.9976  1.9976 sum   3.9951
    7    C  MulP   1.9978  1.9978 sum   3.9955
    8    C  MulP   2.0001  2.0001 sum   4.0001
    9    C  MulP   1.9950  1.9950 sum   3.9899
   10    C  MulP   1.9758  1.9758 sum   3.9516
   11    C  MulP   1.9648  1.9648 sum   3.9295
   12    C  MulP   1.9765  1.9765 sum   3.9530
   13    C  MulP   1.9957  1.9957 sum   3.9914
   14    C  MulP   1.9978  1.9978 sum   3.9956
   15    C  MulP   1.9998  1.9998 sum   3.9995
   16    C  MulP   1.9977  1.9977 sum   3.9953
   17    C  MulP   1.9970  1.9970 sum   3.9940
   18    C  MulP   2.0338  2.0338 sum   4.0676
   19    C  MulP   2.0544  2.0544 sum   4.1087
   20    C  MulP   1.9966  1.9966 sum   3.9933
     ..........
     ......

 Sum of MulP: up   =   208.00000 down          =   208.00000
              total=   416.00000 ideal(neutral)=   416.00000
<DFT>  Total Spin Moment (muB) =  0.000000000000
<DFT>  Mixing_weight= 0.030000000000
<DFT>  Uele   = -201.455138773326  dUele     =   0.024432140207
<DFT>  NormRD =    0.160090201952  Criterion =   0.000000010000

******************* MD= 1  SCF=27 *******************
<Poisson>  Poisson's equation using FFT...
<Set_Hamiltonian>  Hamiltonian matrix for VNA+dVH+Vxc...
<Band>  Solving the eigenvalue problem...
 KGrids1:  -0.43750  -0.31250  -0.18750  -0.06250   0.06250   0.18750   0.31250   0.43750 
 KGrids2:  -0.43750  -0.31250  -0.18750  -0.06250   0.06250   0.18750   0.31250   0.43750 
 KGrids3:   0.00000 
<Band_DFT>  Eigen, time=8.509894
<Band_DFT>  DM, time=0.000000
    1    C  MulP   1.9966  1.9966 sum   3.9931
    2    C  MulP   1.9955  1.9955 sum   3.9910
    3    C  MulP   1.9957  1.9957 sum   3.9915
    4    C  MulP   1.9970  1.9970 sum   3.9940
    5    C  MulP   2.0006  2.0006 sum   4.0013
    6    C  MulP   1.9976  1.9976 sum   3.9953
    7    C  MulP   1.9977  1.9977 sum   3.9955
    8    C  MulP   2.0000  2.0000 sum   4.0000
    9    C  MulP   1.9951  1.9951 sum   3.9901
   10    C  MulP   1.9757  1.9757 sum   3.9514
   11    C  MulP   1.9646  1.9646 sum   3.9292
   12    C  MulP   1.9766  1.9766 sum   3.9533
   13    C  MulP   1.9958  1.9958 sum   3.9917
   14    C  MulP   1.9979  1.9979 sum   3.9959
   15    C  MulP   1.9998  1.9998 sum   3.9996
   16    C  MulP   1.9977  1.9977 sum   3.9953
   17    C  MulP   1.9977  1.9977 sum   3.9953
   18    C  MulP   2.0415  2.0415 sum   4.0830
   19    C  MulP   2.0545  2.0545 sum   4.1091
   20    C  MulP   1.9977  1.9977 sum   3.9954
     ..........
     ......

 Sum of MulP: up   =   208.00000 down          =   208.00000
              total=   416.00000 ideal(neutral)=   416.00000
<DFT>  Total Spin Moment (muB) =  0.000000000000
<DFT>  Mixing_weight= 0.030000000000
<DFT>  Uele   = -201.442577513339  dUele     =   0.012561259988
<DFT>  NormRD =    0.126306779060  Criterion =   0.000000010000

******************* MD= 1  SCF=28 *******************
<Poisson>  Poisson's equation using FFT...
<Set_Hamiltonian>  Hamiltonian matrix for VNA+dVH+Vxc...
<Band>  Solving the eigenvalue problem...
 KGrids1:  -0.43750  -0.31250  -0.18750  -0.06250   0.06250   0.18750   0.31250   0.43750 
 KGrids2:  -0.43750  -0.31250  -0.18750  -0.06250   0.06250   0.18750   0.31250   0.43750 
 KGrids3:   0.00000 
<Band_DFT>  Eigen, time=8.498370
<Band_DFT>  DM, time=0.000000
    1    C  MulP   1.9970  1.9970 sum   3.9941
    2    C  MulP   1.9957  1.9957 sum   3.9915
    3    C  MulP   1.9958  1.9958 sum   3.9916
    4    C  MulP   1.9970  1.9970 sum   3.9940
    5    C  MulP   2.0004  2.0004 sum   4.0009
    6    C  MulP   1.9976  1.9976 sum   3.9951
    7    C  MulP   1.9978  1.9978 sum   3.9956
    8    C  MulP   2.0003  2.0003 sum   4.0005
    9    C  MulP   1.9952  1.9952 sum   3.9904
   10    C  MulP   1.9762  1.9762 sum   3.9525
   11    C  MulP   1.9658  1.9658 sum   3.9316
   12    C  MulP   1.9770  1.9770 sum   3.9540
   13    C  MulP   1.9956  1.9956 sum   3.9913
   14    C  MulP   1.9978  1.9978 sum   3.9956
   15    C  MulP   1.9998  1.9998 sum   3.9995
   16    C  MulP   1.9977  1.9977 sum   3.9955
   17    C  MulP   1.9971  1.9971 sum   3.9942
   18    C  MulP   2.0392  2.0392 sum   4.0785
   19    C  MulP   2.0514  2.0514 sum   4.1027
   20    C  MulP   1.9974  1.9974 sum   3.9948
     ..........
     ......

 Sum of MulP: up   =   208.00000 down          =   208.00000
              total=   416.00000 ideal(neutral)=   416.00000
<DFT>  Total Spin Moment (muB) =  0.000000000000
<DFT>  Mixing_weight= 0.030000000000
<DFT>  Uele   = -201.427608706917  dUele     =   0.014968806422
<DFT>  NormRD =    0.090574545046  Criterion =   0.000000010000

******************* MD= 1  SCF=29 *******************
<Poisson>  Poisson's equation using FFT...
<Set_Hamiltonian>  Hamiltonian matrix for VNA+dVH+Vxc...
<Band>  Solving the eigenvalue problem...
 KGrids1:  -0.43750  -0.31250  -0.18750  -0.06250   0.06250   0.18750   0.31250   0.43750 
 KGrids2:  -0.43750  -0.31250  -0.18750  -0.06250   0.06250   0.18750   0.31250   0.43750 
 KGrids3:   0.00000 
<Band_DFT>  Eigen, time=8.526708
<Band_DFT>  DM, time=0.000000
    1    C  MulP   1.9973  1.9973 sum   3.9947
    2    C  MulP   1.9959  1.9959 sum   3.9918
    3    C  MulP   1.9958  1.9958 sum   3.9916
    4    C  MulP   1.9969  1.9969 sum   3.9937
    5    C  MulP   2.0004  2.0004 sum   4.0008
    6    C  MulP   1.9976  1.9976 sum   3.9951
    7    C  MulP   1.9979  1.9979 sum   3.9958
    8    C  MulP   2.0005  2.0005 sum   4.0010
    9    C  MulP   1.9959  1.9959 sum   3.9918
   10    C  MulP   1.9765  1.9765 sum   3.9530
   11    C  MulP   1.9655  1.9655 sum   3.9310
   12    C  MulP   1.9770  1.9770 sum   3.9539
   13    C  MulP   1.9958  1.9958 sum   3.9915
   14    C  MulP   1.9977  1.9977 sum   3.9954
   15    C  MulP   1.9998  1.9998 sum   3.9995
   16    C  MulP   1.9979  1.9979 sum   3.9958
   17    C  MulP   1.9980  1.9980 sum   3.9959
   18    C  MulP   2.0492  2.0492 sum   4.0984
   19    C  MulP   2.0560  2.0560 sum   4.1119
   20    C  MulP   1.9975  1.9975 sum   3.9949
     ..........
     ......

 Sum of MulP: up   =   208.00000 down          =   208.00000
              total=   416.00000 ideal(neutral)=   416.00000
<DFT>  Total Spin Moment (muB) =  0.000000000000
<DFT>  Mixing_weight= 0.030000000000
<DFT>  Uele   = -201.412049280375  dUele     =   0.015559426542
<DFT>  NormRD =    0.059026489498  Criterion =   0.000000010000

******************* MD= 1  SCF=30 *******************
<Poisson>  Poisson's equation using FFT...
<Set_Hamiltonian>  Hamiltonian matrix for VNA+dVH+Vxc...
<Band>  Solving the eigenvalue problem...
 KGrids1:  -0.43750  -0.31250  -0.18750  -0.06250   0.06250   0.18750   0.31250   0.43750 
 KGrids2:  -0.43750  -0.31250  -0.18750  -0.06250   0.06250   0.18750   0.31250   0.43750 
 KGrids3:   0.00000 
<Band_DFT>  Eigen, time=8.503174
<Band_DFT>  DM, time=0.000000
    1    C  MulP   1.9972  1.9972 sum   3.9944
    2    C  MulP   1.9955  1.9955 sum   3.9911
    3    C  MulP   1.9958  1.9958 sum   3.9916
    4    C  MulP   1.9969  1.9969 sum   3.9938
    5    C  MulP   2.0005  2.0005 sum   4.0011
    6    C  MulP   1.9976  1.9976 sum   3.9951
    7    C  MulP   1.9977  1.9977 sum   3.9954
    8    C  MulP   2.0002  2.0002 sum   4.0004
    9    C  MulP   1.9958  1.9958 sum   3.9916
   10    C  MulP   1.9775  1.9775 sum   3.9550
   11    C  MulP   1.9662  1.9662 sum   3.9324
   12    C  MulP   1.9769  1.9769 sum   3.9539
   13    C  MulP   1.9957  1.9957 sum   3.9915
   14    C  MulP   1.9978  1.9978 sum   3.9956
   15    C  MulP   1.9997  1.9997 sum   3.9995
   16    C  MulP   1.9977  1.9977 sum   3.9954
   17    C  MulP   1.9974  1.9974 sum   3.9948
   18    C  MulP   2.0530  2.0530 sum   4.1060
   19    C  MulP   2.0552  2.0552 sum   4.1103
   20    C  MulP   1.9972  1.9972 sum   3.9945
     ..........
     ......

 Sum of MulP: up   =   208.00000 down          =   208.00000
              total=   416.00000 ideal(neutral)=   416.00000
<DFT>  Total Spin Moment (muB) =  0.000000000000
<DFT>  Mixing_weight= 0.030000000000
<DFT>  Uele   = -201.390016704756  dUele     =   0.022032575620
<DFT>  NormRD =    0.020840238767  Criterion =   0.000000010000

******************* MD= 1  SCF=31 *******************
<Poisson>  Poisson's equation using FFT...
<Set_Hamiltonian>  Hamiltonian matrix for VNA+dVH+Vxc...
<Band>  Solving the eigenvalue problem...
 KGrids1:  -0.43750  -0.31250  -0.18750  -0.06250   0.06250   0.18750   0.31250   0.43750 
 KGrids2:  -0.43750  -0.31250  -0.18750  -0.06250   0.06250   0.18750   0.31250   0.43750 
 KGrids3:   0.00000 
<Band_DFT>  Eigen, time=8.496717
<Band_DFT>  DM, time=0.000000
    1    C  MulP   1.9971  1.9971 sum   3.9943
    2    C  MulP   1.9956  1.9956 sum   3.9912
    3    C  MulP   1.9958  1.9958 sum   3.9916
    4    C  MulP   1.9970  1.9970 sum   3.9939
    5    C  MulP   2.0005  2.0005 sum   4.0011
    6    C  MulP   1.9975  1.9975 sum   3.9951
    7    C  MulP   1.9977  1.9977 sum   3.9954
    8    C  MulP   2.0002  2.0002 sum   4.0004
    9    C  MulP   1.9959  1.9959 sum   3.9919
   10    C  MulP   1.9774  1.9774 sum   3.9547
   11    C  MulP   1.9661  1.9661 sum   3.9321
   12    C  MulP   1.9771  1.9771 sum   3.9542
   13    C  MulP   1.9958  1.9958 sum   3.9915
   14    C  MulP   1.9978  1.9978 sum   3.9956
   15    C  MulP   1.9998  1.9998 sum   3.9995
   16    C  MulP   1.9977  1.9977 sum   3.9954
   17    C  MulP   1.9975  1.9975 sum   3.9950
   18    C  MulP   2.0578  2.0578 sum   4.1155
   19    C  MulP   2.0552  2.0552 sum   4.1104
   20    C  MulP   1.9973  1.9973 sum   3.9946
     ..........
     ......

 Sum of MulP: up   =   208.00000 down          =   208.00000
              total=   416.00000 ideal(neutral)=   416.00000
<DFT>  Total Spin Moment (muB) =  0.000000000000
<DFT>  Mixing_weight= 0.030000000000
<DFT>  Uele   = -201.384943953635  dUele     =   0.005072751120
<DFT>  NormRD =    0.013105731505  Criterion =   0.000000010000

******************* MD= 1  SCF=32 *******************
<Poisson>  Poisson's equation using FFT...
<Set_Hamiltonian>  Hamiltonian matrix for VNA+dVH+Vxc...
<Band>  Solving the eigenvalue problem...
 KGrids1:  -0.43750  -0.31250  -0.18750  -0.06250   0.06250   0.18750   0.31250   0.43750 
 KGrids2:  -0.43750  -0.31250  -0.18750  -0.06250   0.06250   0.18750   0.31250   0.43750 
 KGrids3:   0.00000 
<Band_DFT>  Eigen, time=8.506044
<Band_DFT>  DM, time=0.000001
    1    C  MulP   1.9972  1.9972 sum   3.9943
    2    C  MulP   1.9957  1.9957 sum   3.9913
    3    C  MulP   1.9959  1.9959 sum   3.9918
    4    C  MulP   1.9970  1.9970 sum   3.9939
    5    C  MulP   2.0005  2.0005 sum   4.0009
    6    C  MulP   1.9976  1.9976 sum   3.9951
    7    C  MulP   1.9978  1.9978 sum   3.9955
    8    C  MulP   2.0003  2.0003 sum   4.0005
    9    C  MulP   1.9958  1.9958 sum   3.9917
   10    C  MulP   1.9773  1.9773 sum   3.9546
   11    C  MulP   1.9661  1.9661 sum   3.9323
   12    C  MulP   1.9771  1.9771 sum   3.9542
   13    C  MulP   1.9958  1.9958 sum   3.9916
   14    C  MulP   1.9978  1.9978 sum   3.9956
   15    C  MulP   1.9998  1.9998 sum   3.9996
   16    C  MulP   1.9978  1.9978 sum   3.9955
   17    C  MulP   1.9976  1.9976 sum   3.9951
   18    C  MulP   2.0557  2.0557 sum   4.1115
   19    C  MulP   2.0548  2.0548 sum   4.1096
   20    C  MulP   1.9974  1.9974 sum   3.9947
     ..........
     ......

 Sum of MulP: up   =   208.00000 down          =   208.00000
              total=   416.00000 ideal(neutral)=   416.00000
<DFT>  Total Spin Moment (muB) =  0.000000000000
<DFT>  Mixing_weight= 0.030000000000
<DFT>  Uele   = -201.379161613911  dUele     =   0.005782339724
<DFT>  NormRD =    0.011279238562  Criterion =   0.000000010000

******************* MD= 1  SCF=33 *******************
<Poisson>  Poisson's equation using FFT...
<Set_Hamiltonian>  Hamiltonian matrix for VNA+dVH+Vxc...
<Band>  Solving the eigenvalue problem...
 KGrids1:  -0.43750  -0.31250  -0.18750  -0.06250   0.06250   0.18750   0.31250   0.43750 
 KGrids2:  -0.43750  -0.31250  -0.18750  -0.06250   0.06250   0.18750   0.31250   0.43750 
 KGrids3:   0.00000 
<Band_DFT>  Eigen, time=8.514195
<Band_DFT>  DM, time=0.000001
    1    C  MulP   1.9972  1.9972 sum   3.9943
    2    C  MulP   1.9957  1.9957 sum   3.9913
    3    C  MulP   1.9959  1.9959 sum   3.9918
    4    C  MulP   1.9970  1.9970 sum   3.9939
    5    C  MulP   2.0005  2.0005 sum   4.0009
    6    C  MulP   1.9976  1.9976 sum   3.9951
    7    C  MulP   1.9978  1.9978 sum   3.9955
    8    C  MulP   2.0003  2.0003 sum   4.0006
    9    C  MulP   1.9959  1.9959 sum   3.9917
   10    C  MulP   1.9772  1.9772 sum   3.9545
   11    C  MulP   1.9661  1.9661 sum   3.9321
   12    C  MulP   1.9771  1.9771 sum   3.9542
   13    C  MulP   1.9958  1.9958 sum   3.9916
   14    C  MulP   1.9978  1.9978 sum   3.9956
   15    C  MulP   1.9998  1.9998 sum   3.9995
   16    C  MulP   1.9978  1.9978 sum   3.9955
   17    C  MulP   1.9976  1.9976 sum   3.9952
   18    C  MulP   2.0562  2.0562 sum   4.1124
   19    C  MulP   2.0556  2.0556 sum   4.1111
   20    C  MulP   1.9974  1.9974 sum   3.9947
     ..........
     ......

 Sum of MulP: up   =   208.00000 down          =   208.00000
              total=   416.00000 ideal(neutral)=   416.00000
<DFT>  Total Spin Moment (muB) =  0.000000000000
<DFT>  Mixing_weight= 0.030000000000
<DFT>  Uele   = -201.377008974299  dUele     =   0.002152639612
<DFT>  NormRD =    0.007469438239  Criterion =   0.000000010000

******************* MD= 1  SCF=34 *******************
<Poisson>  Poisson's equation using FFT...
<Set_Hamiltonian>  Hamiltonian matrix for VNA+dVH+Vxc...
<Band>  Solving the eigenvalue problem...
 KGrids1:  -0.43750  -0.31250  -0.18750  -0.06250   0.06250   0.18750   0.31250   0.43750 
 KGrids2:  -0.43750  -0.31250  -0.18750  -0.06250   0.06250   0.18750   0.31250   0.43750 
 KGrids3:   0.00000 
<Band_DFT>  Eigen, time=8.504511
<Band_DFT>  DM, time=0.000000
    1    C  MulP   1.9972  1.9972 sum   3.9944
    2    C  MulP   1.9957  1.9957 sum   3.9914
    3    C  MulP   1.9959  1.9959 sum   3.9917
    4    C  MulP   1.9969  1.9969 sum   3.9939
    5    C  MulP   2.0005  2.0005 sum   4.0010
    6    C  MulP   1.9975  1.9975 sum   3.9951
    7    C  MulP   1.9977  1.9977 sum   3.9955
    8    C  MulP   2.0003  2.0003 sum   4.0005
    9    C  MulP   1.9959  1.9959 sum   3.9917
   10    C  MulP   1.9772  1.9772 sum   3.9544
   11    C  MulP   1.9660  1.9660 sum   3.9321
   12    C  MulP   1.9771  1.9771 sum   3.9542
   13    C  MulP   1.9958  1.9958 sum   3.9916
   14    C  MulP   1.9978  1.9978 sum   3.9955
   15    C  MulP   1.9997  1.9997 sum   3.9995
   16    C  MulP   1.9977  1.9977 sum   3.9955
   17    C  MulP   1.9976  1.9976 sum   3.9952
   18    C  MulP   2.0555  2.0555 sum   4.1110
   19    C  MulP   2.0555  2.0555 sum   4.1110
   20    C  MulP   1.9974  1.9974 sum   3.9947
     ..........
     ......

 Sum of MulP: up   =   208.00000 down          =   208.00000
              total=   416.00000 ideal(neutral)=   416.00000
<DFT>  Total Spin Moment (muB) =  0.000000000000
<DFT>  Mixing_weight= 0.030000000000
<DFT>  Uele   = -201.369970677949  dUele     =   0.007038296351
<DFT>  NormRD =    0.001600147191  Criterion =   0.000000010000

******************* MD= 1  SCF=35 *******************
<Poisson>  Poisson's equation using FFT...
<Set_Hamiltonian>  Hamiltonian matrix for VNA+dVH+Vxc...
<Band>  Solving the eigenvalue problem...
 KGrids1:  -0.43750  -0.31250  -0.18750  -0.06250   0.06250   0.18750   0.31250   0.43750 
 KGrids2:  -0.43750  -0.31250  -0.18750  -0.06250   0.06250   0.18750   0.31250   0.43750 
 KGrids3:   0.00000 
<Band_DFT>  Eigen, time=8.504503
<Band_DFT>  DM, time=0.000000
    1    C  MulP   1.9972  1.9972 sum   3.9943
    2    C  MulP   1.9957  1.9957 sum   3.9914
    3    C  MulP   1.9959  1.9959 sum   3.9917
    4    C  MulP   1.9970  1.9970 sum   3.9939
    5    C  MulP   2.0005  2.0005 sum   4.0010
    6    C  MulP   1.9976  1.9976 sum   3.9951
    7    C  MulP   1.9978  1.9978 sum   3.9955
    8    C  MulP   2.0003  2.0003 sum   4.0005
    9    C  MulP   1.9959  1.9959 sum   3.9917
   10    C  MulP   1.9772  1.9772 sum   3.9544
   11    C  MulP   1.9660  1.9660 sum   3.9321
   12    C  MulP   1.9771  1.9771 sum   3.9543
   13    C  MulP   1.9958  1.9958 sum   3.9916
   14    C  MulP   1.9978  1.9978 sum   3.9956
   15    C  MulP   1.9998  1.9998 sum   3.9996
   16    C  MulP   1.9978  1.9978 sum   3.9955
   17    C  MulP   1.9976  1.9976 sum   3.9952
   18    C  MulP   2.0554  2.0554 sum   4.1108
   19    C  MulP   2.0557  2.0557 sum   4.1113
   20    C  MulP   1.9974  1.9974 sum   3.9947
     ..........
     ......

 Sum of MulP: up   =   208.00000 down          =   208.00000
              total=   416.00000 ideal(neutral)=   416.00000
<DFT>  Total Spin Moment (muB) =  0.000000000000
<DFT>  Mixing_weight= 0.030000000000
<DFT>  Uele   = -201.370119820127  dUele     =   0.000149142179
<DFT>  NormRD =    0.001971113635  Criterion =   0.000000010000

******************* MD= 1  SCF=36 *******************
<Poisson>  Poisson's equation using FFT...
<Set_Hamiltonian>  Hamiltonian matrix for VNA+dVH+Vxc...
<Band>  Solving the eigenvalue problem...
 KGrids1:  -0.43750  -0.31250  -0.18750  -0.06250   0.06250   0.18750   0.31250   0.43750 
 KGrids2:  -0.43750  -0.31250  -0.18750  -0.06250   0.06250   0.18750   0.31250   0.43750 
 KGrids3:   0.00000 
<Band_DFT>  Eigen, time=8.517798
<Band_DFT>  DM, time=0.000000
    1    C  MulP   1.9972  1.9972 sum   3.9943
    2    C  MulP   1.9957  1.9957 sum   3.9914
    3    C  MulP   1.9959  1.9959 sum   3.9917
    4    C  MulP   1.9970  1.9970 sum   3.9939
    5    C  MulP   2.0005  2.0005 sum   4.0010
    6    C  MulP   1.9975  1.9975 sum   3.9951
    7    C  MulP   1.9978  1.9978 sum   3.9955
    8    C  MulP   2.0003  2.0003 sum   4.0005
    9    C  MulP   1.9958  1.9958 sum   3.9917
   10    C  MulP   1.9772  1.9772 sum   3.9544
   11    C  MulP   1.9660  1.9660 sum   3.9321
   12    C  MulP   1.9771  1.9771 sum   3.9543
   13    C  MulP   1.9958  1.9958 sum   3.9916
   14    C  MulP   1.9978  1.9978 sum   3.9956
   15    C  MulP   1.9998  1.9998 sum   3.9995
   16    C  MulP   1.9978  1.9978 sum   3.9955
   17    C  MulP   1.9976  1.9976 sum   3.9952
   18    C  MulP   2.0554  2.0554 sum   4.1108
   19    C  MulP   2.0556  2.0556 sum   4.1111
   20    C  MulP   1.9973  1.9973 sum   3.9947
     ..........
     ......

 Sum of MulP: up   =   208.00000 down          =   208.00000
              total=   416.00000 ideal(neutral)=   416.00000
<DFT>  Total Spin Moment (muB) =  0.000000000000
<DFT>  Mixing_weight= 0.030000000000
<DFT>  Uele   = -201.369860759987  dUele     =   0.000259060140
<DFT>  NormRD =    0.000597100410  Criterion =   0.000000010000

******************* MD= 1  SCF=37 *******************
<Poisson>  Poisson's equation using FFT...
<Set_Hamiltonian>  Hamiltonian matrix for VNA+dVH+Vxc...
<Band>  Solving the eigenvalue problem...
 KGrids1:  -0.43750  -0.31250  -0.18750  -0.06250   0.06250   0.18750   0.31250   0.43750 
 KGrids2:  -0.43750  -0.31250  -0.18750  -0.06250   0.06250   0.18750   0.31250   0.43750 
 KGrids3:   0.00000 
<Band_DFT>  Eigen, time=8.511815
<Band_DFT>  DM, time=0.000000
    1    C  MulP   1.9972  1.9972 sum   3.9944
    2    C  MulP   1.9957  1.9957 sum   3.9914
    3    C  MulP   1.9959  1.9959 sum   3.9918
    4    C  MulP   1.9970  1.9970 sum   3.9939
    5    C  MulP   2.0005  2.0005 sum   4.0010
    6    C  MulP   1.9975  1.9975 sum   3.9951
    7    C  MulP   1.9978  1.9978 sum   3.9955
    8    C  MulP   2.0003  2.0003 sum   4.0005
    9    C  MulP   1.9959  1.9959 sum   3.9917
   10    C  MulP   1.9772  1.9772 sum   3.9544
   11    C  MulP   1.9660  1.9660 sum   3.9321
   12    C  MulP   1.9771  1.9771 sum   3.9542
   13    C  MulP   1.9958  1.9958 sum   3.9916
   14    C  MulP   1.9978  1.9978 sum   3.9956
   15    C  MulP   1.9998  1.9998 sum   3.9995
   16    C  MulP   1.9978  1.9978 sum   3.9955
   17    C  MulP   1.9976  1.9976 sum   3.9952
   18    C  MulP   2.0554  2.0554 sum   4.1108
   19    C  MulP   2.0555  2.0555 sum   4.1110
   20    C  MulP   1.9974  1.9974 sum   3.9947
     ..........
     ......

 Sum of MulP: up   =   208.00000 down          =   208.00000
              total=   416.00000 ideal(neutral)=   416.00000
<DFT>  Total Spin Moment (muB) =  0.000000000000
<DFT>  Mixing_weight= 0.030000000000
<DFT>  Uele   = -201.370479496717  dUele     =   0.000618736730
<DFT>  NormRD =    0.000488166015  Criterion =   0.000000010000

******************* MD= 1  SCF=38 *******************
<Poisson>  Poisson's equation using FFT...
<Set_Hamiltonian>  Hamiltonian matrix for VNA+dVH+Vxc...
<Band>  Solving the eigenvalue problem...
 KGrids1:  -0.43750  -0.31250  -0.18750  -0.06250   0.06250   0.18750   0.31250   0.43750 
 KGrids2:  -0.43750  -0.31250  -0.18750  -0.06250   0.06250   0.18750   0.31250   0.43750 
 KGrids3:   0.00000 
<Band_DFT>  Eigen, time=8.500515
<Band_DFT>  DM, time=0.000000
    1    C  MulP   1.9972  1.9972 sum   3.9943
    2    C  MulP   1.9957  1.9957 sum   3.9914
    3    C  MulP   1.9959  1.9959 sum   3.9917
    4    C  MulP   1.9970  1.9970 sum   3.9939
    5    C  MulP   2.0005  2.0005 sum   4.0010
    6    C  MulP   1.9975  1.9975 sum   3.9951
    7    C  MulP   1.9978  1.9978 sum   3.9955
    8    C  MulP   2.0003  2.0003 sum   4.0005
    9    C  MulP   1.9958  1.9958 sum   3.9917
   10    C  MulP   1.9772  1.9772 sum   3.9544
   11    C  MulP   1.9660  1.9660 sum   3.9320
   12    C  MulP   1.9771  1.9771 sum   3.9542
   13    C  MulP   1.9958  1.9958 sum   3.9916
   14    C  MulP   1.9978  1.9978 sum   3.9956
   15    C  MulP   1.9998  1.9998 sum   3.9995
   16    C  MulP   1.9978  1.9978 sum   3.9955
   17    C  MulP   1.9976  1.9976 sum   3.9952
   18    C  MulP   2.0554  2.0554 sum   4.1107
   19    C  MulP   2.0555  2.0555 sum   4.1110
   20    C  MulP   1.9974  1.9974 sum   3.9947
     ..........
     ......

 Sum of MulP: up   =   208.00000 down          =   208.00000
              total=   416.00000 ideal(neutral)=   416.00000
<DFT>  Total Spin Moment (muB) =  0.000000000000
<DFT>  Mixing_weight= 0.030000000000
<DFT>  Uele   = -201.370274135181  dUele     =   0.000205361536
<DFT>  NormRD =    0.000243598932  Criterion =   0.000000010000

******************* MD= 1  SCF=39 *******************
<Poisson>  Poisson's equation using FFT...
<Set_Hamiltonian>  Hamiltonian matrix for VNA+dVH+Vxc...
<Band>  Solving the eigenvalue problem...
 KGrids1:  -0.43750  -0.31250  -0.18750  -0.06250   0.06250   0.18750   0.31250   0.43750 
 KGrids2:  -0.43750  -0.31250  -0.18750  -0.06250   0.06250   0.18750   0.31250   0.43750 
 KGrids3:   0.00000 
<Band_DFT>  Eigen, time=8.501272
<Band_DFT>  DM, time=0.000000
    1    C  MulP   1.9972  1.9972 sum   3.9943
    2    C  MulP   1.9957  1.9957 sum   3.9914
    3    C  MulP   1.9959  1.9959 sum   3.9917
    4    C  MulP   1.9970  1.9970 sum   3.9939
    5    C  MulP   2.0005  2.0005 sum   4.0010
    6    C  MulP   1.9975  1.9975 sum   3.9951
    7    C  MulP   1.9978  1.9978 sum   3.9955
    8    C  MulP   2.0003  2.0003 sum   4.0005
    9    C  MulP   1.9958  1.9958 sum   3.9917
   10    C  MulP   1.9772  1.9772 sum   3.9544
   11    C  MulP   1.9660  1.9660 sum   3.9321
   12    C  MulP   1.9771  1.9771 sum   3.9542
   13    C  MulP   1.9958  1.9958 sum   3.9916
   14    C  MulP   1.9978  1.9978 sum   3.9956
   15    C  MulP   1.9998  1.9998 sum   3.9995
   16    C  MulP   1.9978  1.9978 sum   3.9955
   17    C  MulP   1.9976  1.9976 sum   3.9952
   18    C  MulP   2.0554  2.0554 sum   4.1107
   19    C  MulP   2.0555  2.0555 sum   4.1110
   20    C  MulP   1.9974  1.9974 sum   3.9947
     ..........
     ......

 Sum of MulP: up   =   208.00000 down          =   208.00000
              total=   416.00000 ideal(neutral)=   416.00000
<DFT>  Total Spin Moment (muB) =  0.000000000000
<DFT>  Mixing_weight= 0.030000000000
<DFT>  Uele   = -201.370181484248  dUele     =   0.000092650932
<DFT>  NormRD =    0.000109155761  Criterion =   0.000000010000

******************* MD= 1  SCF=40 *******************
<Poisson>  Poisson's equation using FFT...
<Set_Hamiltonian>  Hamiltonian matrix for VNA+dVH+Vxc...
<Band>  Solving the eigenvalue problem...
 KGrids1:  -0.43750  -0.31250  -0.18750  -0.06250   0.06250   0.18750   0.31250   0.43750 
 KGrids2:  -0.43750  -0.31250  -0.18750  -0.06250   0.06250   0.18750   0.31250   0.43750 
[...]
    9    C  MulP   1.9958  1.9958 sum   3.9915
   10    C  MulP   1.9765  1.9765 sum   3.9529
   11    C  MulP   1.9724  1.9724 sum   3.9448
   12    C  MulP   1.9764  1.9764 sum   3.9529
   13    C  MulP   1.9956  1.9956 sum   3.9913
   14    C  MulP   1.9983  1.9983 sum   3.9966
   15    C  MulP   1.9996  1.9996 sum   3.9993
   16    C  MulP   1.9983  1.9983 sum   3.9967
   17    C  MulP   2.0036  2.0036 sum   4.0071
   18    C  MulP   2.0513  2.0513 sum   4.1025
   19    C  MulP   2.0512  2.0512 sum   4.1024
   20    C  MulP   2.0032  2.0032 sum   4.0063
     ..........
     ......

 Sum of MulP: up   =   208.00000 down          =   208.00000
              total=   416.00000 ideal(neutral)=   416.00000
<DFT>  Total Spin Moment (muB) =  0.000000000000
<DFT>  Mixing_weight= 0.030000000000
<DFT>  Uele   = -201.532758538656  dUele     =   0.000000180921
<DFT>  NormRD =    0.000000142792  Criterion =   0.000000010000

******************* MD=10  SCF=23 *******************
<Poisson>  Poisson's equation using FFT...
<Set_Hamiltonian>  Hamiltonian matrix for VNA+dVH+Vxc...
<Band>  Solving the eigenvalue problem...
 KGrids1:  -0.43750  -0.31250  -0.18750  -0.06250   0.06250   0.18750   0.31250   0.43750 
 KGrids2:  -0.43750  -0.31250  -0.18750  -0.06250   0.06250   0.18750   0.31250   0.43750 
 KGrids3:   0.00000 
<Band_DFT>  Eigen, time=8.584045
<Band_DFT>  DM, time=0.000001
    1    C  MulP   1.9980  1.9980 sum   3.9961
    2    C  MulP   1.9943  1.9943 sum   3.9886
    3    C  MulP   1.9945  1.9945 sum   3.9889
    4    C  MulP   1.9978  1.9978 sum   3.9956
    5    C  MulP   1.9996  1.9996 sum   3.9993
    6    C  MulP   1.9981  1.9981 sum   3.9963
    7    C  MulP   1.9983  1.9983 sum   3.9967
    8    C  MulP   1.9995  1.9995 sum   3.9989
    9    C  MulP   1.9958  1.9958 sum   3.9915
   10    C  MulP   1.9765  1.9765 sum   3.9529
   11    C  MulP   1.9724  1.9724 sum   3.9448
   12    C  MulP   1.9764  1.9764 sum   3.9529
   13    C  MulP   1.9956  1.9956 sum   3.9913
   14    C  MulP   1.9983  1.9983 sum   3.9966
   15    C  MulP   1.9996  1.9996 sum   3.9993
   16    C  MulP   1.9983  1.9983 sum   3.9967
   17    C  MulP   2.0036  2.0036 sum   4.0071
   18    C  MulP   2.0513  2.0513 sum   4.1025
   19    C  MulP   2.0512  2.0512 sum   4.1024
   20    C  MulP   2.0032  2.0032 sum   4.0063
     ..........
     ......

 Sum of MulP: up   =   208.00000 down          =   208.00000
              total=   416.00000 ideal(neutral)=   416.00000
<DFT>  Total Spin Moment (muB) =  0.000000000000
<DFT>  Mixing_weight= 0.030000000000
<DFT>  Uele   = -201.532758520730  dUele     =   0.000000017926
<DFT>  NormRD =    0.000000039093  Criterion =   0.000000010000

******************* MD=10  SCF=24 *******************
<Poisson>  Poisson's equation using FFT...
<Set_Hamiltonian>  Hamiltonian matrix for VNA+dVH+Vxc...
<Band>  Solving the eigenvalue problem...
 KGrids1:  -0.43750  -0.31250  -0.18750  -0.06250   0.06250   0.18750   0.31250   0.43750 
 KGrids2:  -0.43750  -0.31250  -0.18750  -0.06250   0.06250   0.18750   0.31250   0.43750 
 KGrids3:   0.00000 
<Band_DFT>  Eigen, time=8.585511
<Band_DFT>  DM, time=0.000000
    1    C  MulP   1.9980  1.9980 sum   3.9961
    2    C  MulP   1.9943  1.9943 sum   3.9886
    3    C  MulP   1.9945  1.9945 sum   3.9889
    4    C  MulP   1.9978  1.9978 sum   3.9956
    5    C  MulP   1.9996  1.9996 sum   3.9993
    6    C  MulP   1.9981  1.9981 sum   3.9963
    7    C  MulP   1.9983  1.9983 sum   3.9967
    8    C  MulP   1.9995  1.9995 sum   3.9989
    9    C  MulP   1.9958  1.9958 sum   3.9915
   10    C  MulP   1.9765  1.9765 sum   3.9529
   11    C  MulP   1.9724  1.9724 sum   3.9448
   12    C  MulP   1.9764  1.9764 sum   3.9529
   13    C  MulP   1.9956  1.9956 sum   3.9913
   14    C  MulP   1.9983  1.9983 sum   3.9966
   15    C  MulP   1.9996  1.9996 sum   3.9993
   16    C  MulP   1.9983  1.9983 sum   3.9967
   17    C  MulP   2.0036  2.0036 sum   4.0071
   18    C  MulP   2.0513  2.0513 sum   4.1025
   19    C  MulP   2.0512  2.0512 sum   4.1024
   20    C  MulP   2.0032  2.0032 sum   4.0063
     ..........
     ......

 Sum of MulP: up   =   208.00000 down          =   208.00000
              total=   416.00000 ideal(neutral)=   416.00000
<DFT>  Total Spin Moment (muB) =  0.000000000000
<DFT>  Mixing_weight= 0.030000000000
<DFT>  Uele   = -201.532758519983  dUele     =   0.000000000747
<DFT>  NormRD =    0.000000070236  Criterion =   0.000000010000
<MD=10>  Force calculation
  Force calculation #1
  Force calculation #2
  Force calculation #3
  Force calculation #4
  Force calculation #5
<MD=10>  Total Energy
  Force calculation #6
  Force calculation #7

*******************************************************
                  Dipole moment (Debye)                 
*******************************************************

 Absolute D        0.00077220

                      Dx                Dy                Dz
 Total             -0.00026688       -0.00045742       -0.00056199
 Core            9859.95531713    17077.94632140    20980.40729753
 Electron       -9859.95558401   -17077.94677882   -20980.40785952
 Back ground       -0.00000000       -0.00000000       -0.00000000

*******************************************************
                Total Energy (Hartree) at MD =10        
*******************************************************

  Uele  =    -201.532758519983

  Ukin  =     429.721276186937
  UH0   =   -5356.416616530832
  UH1   =       1.623171522914
  Una   =    -300.945083169502
  Unl   =     -54.240356827594
  Uxc0  =    -100.024908014560
  Uxc1  =    -100.024908014560
  Ucore =    4874.010018658199
  Uhub  =       0.000000000000
  Ucs   =       0.000000000000
  Uzs   =       0.000000000000
  Uzo   =       0.000000000000
  Uef   =       0.000000000000
  UvdW  =       0.000000000000
  Uch   =       0.000000000000
  Utot  =    -606.297406188999

  UpV   =       0.000000000000
  Enpy  =    -606.297406188999
  Note:

  Uele:   band energy
  Ukin:   kinetic energy
  UH0:    electric part of screened Coulomb energy
  UH1:    difference electron-electron Coulomb energy
  Una:    neutral atom potential energy
  Unl:    non-local potential energy
  Uxc0:   exchange-correlation energy for alpha spin
  Uxc1:   exchange-correlation energy for beta spin
  Ucore:  core-core Coulomb energy
  Uhub:   LDA+U energy
  Ucs:    constraint energy for spin orientation
  Uzs:    Zeeman term for spin magnetic moment
  Uzo:    Zeeman term for orbital magnetic moment
  Uef:    electric energy by electric field
  UvdW:   semi-empirical vdW energy 
  Uch:    penalty term to create a core hole
  UpV:    pressure times volume
  Enpy:   Enthalpy = Utot + UpV
  (see also PRB 72, 045121(2005) for the energy contributions)


*******************************************************
           Computational times (s) at MD =10            
*******************************************************

  DFT in total      =  275.47025

  Set_OLP_Kin       =    1.58034
  Set_Nonlocal      =    3.44249
  Set_ProExpn_VNA   =    5.37927
  Set_Hamiltonian   =   30.71758
  Poisson           =    0.36795
  diagonalization   =  213.19149
  Mixing_DM         =    3.35523
  Force             =    3.97583
  Total_Energy      =    1.66937
  Set_Aden_Grid     =    0.24457
  Set_Orbitals_Grid =    0.74548
  Set_Density_Grid  =   10.01963
  RestartFileDFT    =    0.26159
  Mulliken_Charge   =    0.01279
  FFT(2D)_Density   =    0.37475

The SCF was achieved at MD=  10

*******************************************************
             MD or geometry opt. at MD =10              
*******************************************************


The geometry optimization was achieved.
<RF>  |Maximum force| (Hartree/Bohr) = 0.000094715637
<RF>  Criterion       (Hartree/Bohr) = 0.000100000000

     atom=   1, XYZ(ang) Fxyz(a.u.)=  -0.0038    1.4210   10.5000    -0.0000   -0.0000    0.0000
     atom=   2, XYZ(ang) Fxyz(a.u.)=  -1.2231    3.5784   10.5000    -0.0000   -0.0000    0.0000
     atom=   3, XYZ(ang) Fxyz(a.u.)=  -2.4471    5.6981   10.5000    -0.0001   -0.0000    0.0000
     atom=   4, XYZ(ang) Fxyz(a.u.)=  -3.7056    7.8330   10.5000    -0.0001   -0.0000    0.0000
     atom=   5, XYZ(ang) Fxyz(a.u.)=  -4.9346    9.9730   10.5000     0.0000   -0.0000    0.0000
     atom=   6, XYZ(ang) Fxyz(a.u.)=  -6.1750   12.1100   10.5000     0.0001   -0.0000    0.0000
     atom=   7, XYZ(ang) Fxyz(a.u.)=  -7.4036   14.2379   10.5000     0.0000    0.0001    0.0000
     atom=   8, XYZ(ang) Fxyz(a.u.)=  -8.6340   16.3807   10.5000    -0.0000    0.0000    0.0000
     atom=   9, XYZ(ang) Fxyz(a.u.)=   2.4701    1.4122   10.5000    -0.0000   -0.0000    0.0000
     atom=  10, XYZ(ang) Fxyz(a.u.)=   1.2267    3.5521   10.5000     0.0000   -0.0000    0.0000
     atom=  11, XYZ(ang) Fxyz(a.u.)=   0.1045    5.7579   10.5000    -0.0000   -0.0000    0.0000
     atom=  12, XYZ(ang) Fxyz(a.u.)=  -1.2443    7.8326   10.5000    -0.0000    0.0000    0.0000
     atom=  13, XYZ(ang) Fxyz(a.u.)=  -2.4759    9.9797   10.5000    -0.0000   -0.0000    0.0000
     atom=  14, XYZ(ang) Fxyz(a.u.)=  -3.6941   12.1099   10.5000    -0.0001   -0.0000    0.0000
     atom=  15, XYZ(ang) Fxyz(a.u.)=  -4.9345   14.2447   10.5000     0.0000   -0.0000    0.0000
     atom=  16, XYZ(ang) Fxyz(a.u.)=  -6.1631   16.3862   10.5000    -0.0000   -0.0000   -0.0000
     atom=  17, XYZ(ang) Fxyz(a.u.)=   4.9343    1.4704   10.5000     0.0000   -0.0000   -0.0000
     atom=  18, XYZ(ang) Fxyz(a.u.)=   3.6502    3.5558   10.5000    -0.0000    0.0001    0.0000
     atom=  19, XYZ(ang) Fxyz(a.u.)=  -0.0296    9.9302   10.5000     0.0000   -0.0001    0.0000
     atom=  20, XYZ(ang) Fxyz(a.u.)=  -1.1938   12.0850   10.5000    -0.0000    0.0000    0.0000
     atom=  21, XYZ(ang) Fxyz(a.u.)=  -2.4654   14.2378   10.5000    -0.0000    0.0001    0.0000
     atom=  22, XYZ(ang) Fxyz(a.u.)=  -3.7061   16.3862   10.5000     0.0000   -0.0000   -0.0000
     atom=  23, XYZ(ang) Fxyz(a.u.)=   7.3986    1.4123   10.5000     0.0000   -0.0000   -0.0000
     atom=  24, XYZ(ang) Fxyz(a.u.)=   6.2184    3.5557   10.5000     0.0001    0.0001   -0.0000
     atom=  25, XYZ(ang) Fxyz(a.u.)=   1.2541   12.1549   10.5000     0.0001    0.0000    0.0000
     atom=  26, XYZ(ang) Fxyz(a.u.)=  -0.0116   14.2484   10.5000     0.0000    0.0000    0.0000
     atom=  27, XYZ(ang) Fxyz(a.u.)=  -1.2351   16.3807   10.5000     0.0000    0.0000   -0.0000
     atom=  28, XYZ(ang) Fxyz(a.u.)=   9.8728    1.4211   10.5000     0.0000   -0.0000   -0.0000
     atom=  29, XYZ(ang) Fxyz(a.u.)=   8.6420    3.5524   10.5000    -0.0000   -0.0000   -0.0000
     atom=  30, XYZ(ang) Fxyz(a.u.)=   2.4638   14.2554   10.5000    -0.0000   -0.0000    0.0000
     atom=  31, XYZ(ang) Fxyz(a.u.)=   1.2327   16.3866   10.5000    -0.0000    0.0000    0.0000
     atom=  32, XYZ(ang) Fxyz(a.u.)=  12.3404    1.4270   10.5000     0.0000    0.0000   -0.0000
     atom=  33, XYZ(ang) Fxyz(a.u.)=  11.0920    3.5787   10.5000     0.0000   -0.0001   -0.0000
     atom=  34, XYZ(ang) Fxyz(a.u.)=   9.7647    5.7582   10.5000     0.0000   -0.0000    0.0000
     atom=  35, XYZ(ang) Fxyz(a.u.)=   4.9348   14.1248   10.5000    -0.0000    0.0000   -0.0000
     atom=  36, XYZ(ang) Fxyz(a.u.)=   3.7109   16.3642   10.5000    -0.0000    0.0001   -0.0000
     atom=  37, XYZ(ang) Fxyz(a.u.)=  14.8037    1.4242   10.5000     0.0000    0.0000    0.0000
     atom=  38, XYZ(ang) Fxyz(a.u.)=  13.5694    3.5616   10.5000     0.0000   -0.0000    0.0000
     atom=  39, XYZ(ang) Fxyz(a.u.)=  12.3161    5.6984   10.5000     0.0001   -0.0000    0.0000
     atom=  40, XYZ(ang) Fxyz(a.u.)=  11.1132    7.8330   10.5000     0.0000    0.0000    0.0000
     atom=  41, XYZ(ang) Fxyz(a.u.)=   9.8987    9.9306   10.5000    -0.0000   -0.0001   -0.0000
     atom=  42, XYZ(ang) Fxyz(a.u.)=   8.6150   12.1552   10.5000    -0.0001    0.0000   -0.0000
     atom=  43, XYZ(ang) Fxyz(a.u.)=   7.4056   14.2556   10.5000     0.0000   -0.0000   -0.0000
     atom=  44, XYZ(ang) Fxyz(a.u.)=   6.1585   16.3643   10.5000     0.0000    0.0001    0.0000
     atom=  45, XYZ(ang) Fxyz(a.u.)=  17.2669    1.4270   10.5000    -0.0000    0.0000    0.0000
     atom=  46, XYZ(ang) Fxyz(a.u.)=  16.0378    3.5615   10.5000    -0.0000   -0.0000    0.0000
     atom=  47, XYZ(ang) Fxyz(a.u.)=  14.8036    5.6933   10.5000     0.0000   -0.0000    0.0000
     atom=  48, XYZ(ang) Fxyz(a.u.)=  13.5747    7.8331   10.5000     0.0000    0.0000    0.0000
     atom=  49, XYZ(ang) Fxyz(a.u.)=  12.3451    9.9801   10.5000     0.0000   -0.0000    0.0000
     atom=  50, XYZ(ang) Fxyz(a.u.)=  11.0628   12.0853   10.5000     0.0000    0.0000    0.0000
     atom=  51, XYZ(ang) Fxyz(a.u.)=   9.8809   14.2486   10.5000    -0.0000    0.0000    0.0000
     atom=  52, XYZ(ang) Fxyz(a.u.)=   8.6365   16.3866   10.5000     0.0000    0.0000    0.0000
     atom=  53, XYZ(ang) Fxyz(a.u.)=   1.2327    0.7073   10.5000    -0.0000   -0.0000   -0.0000
     atom=  54, XYZ(ang) Fxyz(a.u.)=  -0.0117    2.8453   10.5000     0.0000   -0.0000   -0.0000
     atom=  55, XYZ(ang) Fxyz(a.u.)=  -1.1936    5.0086   10.5000    -0.0000   -0.0000   -0.0000
     atom=  56, XYZ(ang) Fxyz(a.u.)=  -2.4759    7.1138   10.5000    -0.0000    0.0000   -0.0000
     atom=  57, XYZ(ang) Fxyz(a.u.)=  -3.7055    9.2608   10.5000    -0.0000   -0.0000   -0.0000
     atom=  58, XYZ(ang) Fxyz(a.u.)=  -4.9345   11.4006   10.5000    -0.0000    0.0000   -0.0000
     atom=  59, XYZ(ang) Fxyz(a.u.)=  -6.1687   13.5324   10.5000     0.0000    0.0000   -0.0000
     atom=  60, XYZ(ang) Fxyz(a.u.)=  -7.3978   15.6669   10.5000     0.0000   -0.0000   -0.0000
     atom=  61, XYZ(ang) Fxyz(a.u.)=   3.7107    0.7296   10.5000    -0.0000   -0.0001    0.0000
     atom=  62, XYZ(ang) Fxyz(a.u.)=   2.4635    2.8383   10.5000    -0.0000    0.0000   -0.0000
     atom=  63, XYZ(ang) Fxyz(a.u.)=   1.2541    4.9387   10.5000     0.0001   -0.0000   -0.0000
     atom=  64, XYZ(ang) Fxyz(a.u.)=  -0.0296    7.1633   10.5000     0.0000    0.0001    0.0000
     atom=  65, XYZ(ang) Fxyz(a.u.)=  -1.2441    9.2609   10.5000    -0.0000   -0.0000   -0.0000
     atom=  66, XYZ(ang) Fxyz(a.u.)=  -2.4470   11.3955   10.5000    -0.0001    0.0000   -0.0000
     atom=  67, XYZ(ang) Fxyz(a.u.)=  -3.7002   13.5323   10.5000    -0.0000    0.0000   -0.0000
     atom=  68, XYZ(ang) Fxyz(a.u.)=  -4.9345   15.6697   10.5000    -0.0000   -0.0000    0.0000
     atom=  69, XYZ(ang) Fxyz(a.u.)=   6.1582    0.7297   10.5000     0.0000   -0.0001    0.0000
     atom=  70, XYZ(ang) Fxyz(a.u.)=   4.9343    2.9691   10.5000     0.0000   -0.0000    0.0000
     atom=  71, XYZ(ang) Fxyz(a.u.)=   0.1044   11.3357   10.5000    -0.0000    0.0000   -0.0000
     atom=  72, XYZ(ang) Fxyz(a.u.)=  -1.2228   13.5152   10.5000    -0.0000    0.0001   -0.0000
     atom=  73, XYZ(ang) Fxyz(a.u.)=  -2.4712   15.6669   10.5000    -0.0000   -0.0000    0.0000
     atom=  74, XYZ(ang) Fxyz(a.u.)=   8.6364    0.7073   10.5000     0.0000   -0.0000    0.0000
     atom=  75, XYZ(ang) Fxyz(a.u.)=   7.4053    2.8385   10.5000     0.0000    0.0000    0.0000
     atom=  76, XYZ(ang) Fxyz(a.u.)=   1.2271   13.5414   10.5000     0.0000    0.0000   -0.0000
     atom=  77, XYZ(ang) Fxyz(a.u.)=  -0.0036   15.6728   10.5000    -0.0000    0.0000   -0.0000
     atom=  78, XYZ(ang) Fxyz(a.u.)=  11.1043    0.7132   10.5000    -0.0000   -0.0000    0.0000
     atom=  79, XYZ(ang) Fxyz(a.u.)=   9.8807    2.8455   10.5000    -0.0000   -0.0000    0.0000
     atom=  80, XYZ(ang) Fxyz(a.u.)=   8.6150    4.9390   10.5000    -0.0001   -0.0000    0.0000
     atom=  81, XYZ(ang) Fxyz(a.u.)=   3.6508   13.5382   10.5000    -0.0001   -0.0001   -0.0000
     atom=  82, XYZ(ang) Fxyz(a.u.)=   2.4705   15.6816   10.5000    -0.0000    0.0000   -0.0000
     atom=  83, XYZ(ang) Fxyz(a.u.)=  13.5752    0.7076   10.5000    -0.0000    0.0000    0.0000
     atom=  84, XYZ(ang) Fxyz(a.u.)=  12.3345    2.8561   10.5000     0.0000   -0.0001    0.0000
     atom=  85, XYZ(ang) Fxyz(a.u.)=  11.0629    5.0089   10.5000     0.0000   -0.0000   -0.0000
     atom=  86, XYZ(ang) Fxyz(a.u.)=   9.8987    7.1637   10.5000    -0.0000    0.0001   -0.0000
     atom=  87, XYZ(ang) Fxyz(a.u.)=   6.2189   13.5381   10.5000     0.0000   -0.0001    0.0000
     atom=  88, XYZ(ang) Fxyz(a.u.)=   4.9349   15.6235   10.5000    -0.0000    0.0000    0.0000
     atom=  89, XYZ(ang) Fxyz(a.u.)=  16.0323    0.7077   10.5000     0.0000    0.0000   -0.0000
     atom=  90, XYZ(ang) Fxyz(a.u.)=  14.8037    2.8492   10.5000    -0.0000    0.0000   -0.0000
     atom=  91, XYZ(ang) Fxyz(a.u.)=  13.5633    4.9840   10.5000     0.0001    0.0000   -0.0000
     atom=  92, XYZ(ang) Fxyz(a.u.)=  12.3451    7.1142   10.5000     0.0000    0.0000   -0.0000
     atom=  93, XYZ(ang) Fxyz(a.u.)=  11.1134    9.2613   10.5000     0.0000   -0.0000    0.0000
     atom=  94, XYZ(ang) Fxyz(a.u.)=   9.7647   11.3359   10.5000     0.0000    0.0000    0.0000
     atom=  95, XYZ(ang) Fxyz(a.u.)=   8.6425   13.5418   10.5000    -0.0000    0.0000    0.0000
     atom=  96, XYZ(ang) Fxyz(a.u.)=   7.3990   15.6817   10.5000     0.0000    0.0000   -0.0000
     atom=  97, XYZ(ang) Fxyz(a.u.)=  18.5032    0.7132   10.5000     0.0000   -0.0000   -0.0000
     atom=  98, XYZ(ang) Fxyz(a.u.)=  17.2728    2.8560   10.5000    -0.0000   -0.0001   -0.0000
     atom=  99, XYZ(ang) Fxyz(a.u.)=  16.0441    4.9839   10.5000    -0.0001    0.0000   -0.0000
     atom= 100, XYZ(ang) Fxyz(a.u.)=  14.8037    7.1209   10.5000    -0.0000    0.0000   -0.0000
     atom= 101, XYZ(ang) Fxyz(a.u.)=  13.5748    9.2609   10.5000     0.0001    0.0000   -0.0000
     atom= 102, XYZ(ang) Fxyz(a.u.)=  12.3163   11.3958   10.5000     0.0001    0.0000   -0.0000
     atom= 103, XYZ(ang) Fxyz(a.u.)=  11.0923   13.5155   10.5000     0.0000    0.0000   -0.0000
     atom= 104, XYZ(ang) Fxyz(a.u.)=   9.8730   15.6729   10.5000     0.0000    0.0000   -0.0000

outputting data on grids to files...


***********************************************************
***********************************************************
               Computational Time (second)                 
***********************************************************
***********************************************************

                               Min_ID   Min_Time       Max_ID   Max_Time
   Total Computational Time =     7     3328.265          0     3328.424
   readfile                 =     3        2.052         28        2.054
   truncation               =    26       10.723         23       11.477
   MD_pac                   =     0        0.179         30        0.212
   OutData                  =    10        1.265          0        1.422
   DFT                      =    23     3313.198         26     3313.952

*** In DFT ***

   Set_OLP_Kin              =     6       12.401         23       21.152
   Set_Nonlocal             =    23       29.178         26       37.925
   Set_ProExpn_VNA          =     5       51.887         31       55.366
   Set_Hamiltonian          =    16      371.772          2      371.774
   Poisson                  =    16        4.504          1        4.504
   Diagonalization          =     0     2595.518         14     2595.523
   Mixing_DM                =     6       40.443          1       40.445
   Force                    =    16       39.701         11       39.701
   Total_Energy             =     1       16.339          0       16.343
   Set_Aden_Grid            =    31        0.676          5        4.150
   Set_Orbitals_Grid        =     6        5.856         23        9.742
   Set_Density_Grid         =    17      119.319         26      122.313
   RestartFileDFT           =    23        0.532          6        3.197
   Mulliken_Charge          =    14        0.146          7        0.147
   FFT(2D)_Density          =    16        4.500          7        4.500
   Others                   =    31        1.371         17        7.635

The calculation was normally finished.
