
The number of threads in each node for OpenMP parallelization is 1.


*******************************************************
*******************************************************
 Welcome to OpenMX   Ver. 3.9.9                           
 Copyright (C), 2002-2019, T. Ozaki                    
 OpenMX comes with ABSOLUTELY NO WARRANTY.             
 This is free software, and you are welcome to         
 redistribute it under the constitution of the GNU-GPL.
*******************************************************
*******************************************************

Automatic determination of Kerker_factor:   3.992945286074


<Input_std>  Your input file was normally read.
<Input_std>  The system includes 3 species and 132 atoms.

*******************************************************
                     PAO and VPS                       
*******************************************************

<SetPara_DFT>  PAOs of species H were normally found.
<SetPara_DFT>  PAOs of species C were normally found.
<SetPara_DFT>  PAOs of species O were normally found.
<SetPara_DFT>  VPSs of species H were normally found.
               H_PBE19.vps is j-dependent.
               In case of scf.SpinOrbit.Coupling=off,
               j-dependent pseudo potentials are averaged by j-degeneracy,
               which corresponds to a scalar relativistic treatment.
<SetPara_DFT>  VPSs of species C were normally found.
               C_PBE19.vps is j-dependent.
               In case of scf.SpinOrbit.Coupling=off,
               j-dependent pseudo potentials are averaged by j-degeneracy,
               which corresponds to a scalar relativistic treatment.
<SetPara_DFT>  VPSs of species O were normally found.
               O_PBE19.vps is j-dependent.
               In case of scf.SpinOrbit.Coupling=off,
               j-dependent pseudo potentials are averaged by j-degeneracy,
               which corresponds to a scalar relativistic treatment.

*******************************************************
     Fourier transform of PAO and projectors of VNL    
*******************************************************

<FT_PAO>          Fourier transform of pseudo atomic orbitals
<FT_NLP>          Fourier transform of non-local projectors
<FT_ProExpn_VNA>  Fourier transform of VNA separable projectors
<FT_VNA>          Fourier transform of VNA potentials
<FT_ProductPAO>   Fourier transform of product of PAOs

*******************************************************
  Allocation of atoms to processors at MD_iter=    1     
*******************************************************

 proc =   0  # of atoms=   2  estimated weight=         2.00000
 proc =   1  # of atoms=   2  estimated weight=         2.00000
 proc =   2  # of atoms=   2  estimated weight=         2.00000
 proc =   3  # of atoms=   2  estimated weight=         2.00000
 proc =   4  # of atoms=   2  estimated weight=         2.00000
 proc =   5  # of atoms=   2  estimated weight=         2.00000
 proc =   6  # of atoms=   2  estimated weight=         2.00000
 proc =   7  # of atoms=   2  estimated weight=         2.00000
 proc =   8  # of atoms=   2  estimated weight=         2.00000
 proc =   9  # of atoms=   2  estimated weight=         2.00000
 proc =  10  # of atoms=   2  estimated weight=         2.00000
 proc =  11  # of atoms=   2  estimated weight=         2.00000
 proc =  12  # of atoms=   2  estimated weight=         2.00000
 proc =  13  # of atoms=   2  estimated weight=         2.00000
 proc =  14  # of atoms=   2  estimated weight=         2.00000
 proc =  15  # of atoms=   3  estimated weight=         3.00000
 proc =  16  # of atoms=   2  estimated weight=         2.00000
 proc =  17  # of atoms=   2  estimated weight=         2.00000
 proc =  18  # of atoms=   2  estimated weight=         2.00000
 proc =  19  # of atoms=   2  estimated weight=         2.00000
 proc =  20  # of atoms=   2  estimated weight=         2.00000
 proc =  21  # of atoms=   2  estimated weight=         2.00000
 proc =  22  # of atoms=   2  estimated weight=         2.00000
 proc =  23  # of atoms=   2  estimated weight=         2.00000
 proc =  24  # of atoms=   2  estimated weight=         2.00000
 proc =  25  # of atoms=   2  estimated weight=         2.00000
 proc =  26  # of atoms=   2  estimated weight=         2.00000
 proc =  27  # of atoms=   2  estimated weight=         2.00000
 proc =  28  # of atoms=   2  estimated weight=         2.00000
 proc =  29  # of atoms=   2  estimated weight=         2.00000
 proc =  30  # of atoms=   2  estimated weight=         2.00000
 proc =  31  # of atoms=   3  estimated weight=         3.00000
 proc =  32  # of atoms=   2  estimated weight=         2.00000
 proc =  33  # of atoms=   2  estimated weight=         2.00000
 proc =  34  # of atoms=   2  estimated weight=         2.00000
 proc =  35  # of atoms=   2  estimated weight=         2.00000
 proc =  36  # of atoms=   2  estimated weight=         2.00000
 proc =  37  # of atoms=   2  estimated weight=         2.00000
 proc =  38  # of atoms=   2  estimated weight=         2.00000
 proc =  39  # of atoms=   2  estimated weight=         2.00000
 proc =  40  # of atoms=   2  estimated weight=         2.00000
 proc =  41  # of atoms=   2  estimated weight=         2.00000
 proc =  42  # of atoms=   2  estimated weight=         2.00000
 proc =  43  # of atoms=   2  estimated weight=         2.00000
 proc =  44  # of atoms=   2  estimated weight=         2.00000
 proc =  45  # of atoms=   2  estimated weight=         2.00000
 proc =  46  # of atoms=   2  estimated weight=         2.00000
 proc =  47  # of atoms=   3  estimated weight=         3.00000
 proc =  48  # of atoms=   2  estimated weight=         2.00000
 proc =  49  # of atoms=   2  estimated weight=         2.00000
 proc =  50  # of atoms=   2  estimated weight=         2.00000
 proc =  51  # of atoms=   2  estimated weight=         2.00000
 proc =  52  # of atoms=   2  estimated weight=         2.00000
 proc =  53  # of atoms=   2  estimated weight=         2.00000
 proc =  54  # of atoms=   2  estimated weight=         2.00000
 proc =  55  # of atoms=   2  estimated weight=         2.00000
 proc =  56  # of atoms=   2  estimated weight=         2.00000
 proc =  57  # of atoms=   2  estimated weight=         2.00000
 proc =  58  # of atoms=   2  estimated weight=         2.00000
 proc =  59  # of atoms=   2  estimated weight=         2.00000
 proc =  60  # of atoms=   2  estimated weight=         2.00000
 proc =  61  # of atoms=   2  estimated weight=         2.00000
 proc =  62  # of atoms=   2  estimated weight=         2.00000
 proc =  63  # of atoms=   3  estimated weight=         3.00000




*******************************************************
        Analysis of neighbors and setting of grids        
*******************************************************

TFNAN=    6118   Average FNAN=  46.34848
TSNAN=       0   Average SNAN=   0.00000
<truncation> CpyCell= 1 ct_AN=   1 FNAN SNAN  45   0
<truncation> CpyCell= 1 ct_AN=   2 FNAN SNAN  45   0
<truncation> CpyCell= 1 ct_AN=   3 FNAN SNAN  45   0
<truncation> CpyCell= 1 ct_AN=   4 FNAN SNAN  45   0
<truncation> CpyCell= 1 ct_AN=   5 FNAN SNAN  45   0
<truncation> CpyCell= 1 ct_AN=   6 FNAN SNAN  45   0
<truncation> CpyCell= 1 ct_AN=   7 FNAN SNAN  45   0
<truncation> CpyCell= 1 ct_AN=   8 FNAN SNAN  45   0
<truncation> CpyCell= 1 ct_AN=   9 FNAN SNAN  45   0
<truncation> CpyCell= 1 ct_AN=  10 FNAN SNAN  46   0
<truncation> CpyCell= 1 ct_AN=  11 FNAN SNAN  47   0
<truncation> CpyCell= 1 ct_AN=  12 FNAN SNAN  48   0
<truncation> CpyCell= 1 ct_AN=  13 FNAN SNAN  46   0
<truncation> CpyCell= 1 ct_AN=  14 FNAN SNAN  45   0
<truncation> CpyCell= 1 ct_AN=  15 FNAN SNAN  45   0
<truncation> CpyCell= 1 ct_AN=  16 FNAN SNAN  45   0
<truncation> CpyCell= 1 ct_AN=  17 FNAN SNAN  45   0
<truncation> CpyCell= 1 ct_AN=  18 FNAN SNAN  47   0
<truncation> CpyCell= 1 ct_AN=  19 FNAN SNAN  49   0
<truncation> CpyCell= 1 ct_AN=  20 FNAN SNAN  49   0
     ..........
     ......

TFNAN=    6118   Average FNAN=  46.34848
TSNAN=       0   Average SNAN=   0.00000
<truncation> CpyCell= 2 ct_AN=   1 FNAN SNAN  45   0
<truncation> CpyCell= 2 ct_AN=   2 FNAN SNAN  45   0
<truncation> CpyCell= 2 ct_AN=   3 FNAN SNAN  45   0
<truncation> CpyCell= 2 ct_AN=   4 FNAN SNAN  45   0
<truncation> CpyCell= 2 ct_AN=   5 FNAN SNAN  45   0
<truncation> CpyCell= 2 ct_AN=   6 FNAN SNAN  45   0
<truncation> CpyCell= 2 ct_AN=   7 FNAN SNAN  45   0
<truncation> CpyCell= 2 ct_AN=   8 FNAN SNAN  45   0
<truncation> CpyCell= 2 ct_AN=   9 FNAN SNAN  45   0
<truncation> CpyCell= 2 ct_AN=  10 FNAN SNAN  46   0
<truncation> CpyCell= 2 ct_AN=  11 FNAN SNAN  47   0
<truncation> CpyCell= 2 ct_AN=  12 FNAN SNAN  48   0
<truncation> CpyCell= 2 ct_AN=  13 FNAN SNAN  46   0
<truncation> CpyCell= 2 ct_AN=  14 FNAN SNAN  45   0
<truncation> CpyCell= 2 ct_AN=  15 FNAN SNAN  45   0
<truncation> CpyCell= 2 ct_AN=  16 FNAN SNAN  45   0
<truncation> CpyCell= 2 ct_AN=  17 FNAN SNAN  45   0
<truncation> CpyCell= 2 ct_AN=  18 FNAN SNAN  47   0
<truncation> CpyCell= 2 ct_AN=  19 FNAN SNAN  49   0
<truncation> CpyCell= 2 ct_AN=  20 FNAN SNAN  49   0
     ..........
     ......

TFNAN=    6118   Average FNAN=  46.34848
TSNAN=       0   Average SNAN=   0.00000
<truncation> CpyCell= 2 ct_AN=   1 FNAN SNAN  45   0
<truncation> CpyCell= 2 ct_AN=   2 FNAN SNAN  45   0
<truncation> CpyCell= 2 ct_AN=   3 FNAN SNAN  45   0
<truncation> CpyCell= 2 ct_AN=   4 FNAN SNAN  45   0
<truncation> CpyCell= 2 ct_AN=   5 FNAN SNAN  45   0
<truncation> CpyCell= 2 ct_AN=   6 FNAN SNAN  45   0
<truncation> CpyCell= 2 ct_AN=   7 FNAN SNAN  45   0
<truncation> CpyCell= 2 ct_AN=   8 FNAN SNAN  45   0
<truncation> CpyCell= 2 ct_AN=   9 FNAN SNAN  45   0
<truncation> CpyCell= 2 ct_AN=  10 FNAN SNAN  46   0
<truncation> CpyCell= 2 ct_AN=  11 FNAN SNAN  47   0
<truncation> CpyCell= 2 ct_AN=  12 FNAN SNAN  48   0
<truncation> CpyCell= 2 ct_AN=  13 FNAN SNAN  46   0
<truncation> CpyCell= 2 ct_AN=  14 FNAN SNAN  45   0
<truncation> CpyCell= 2 ct_AN=  15 FNAN SNAN  45   0
<truncation> CpyCell= 2 ct_AN=  16 FNAN SNAN  45   0
<truncation> CpyCell= 2 ct_AN=  17 FNAN SNAN  45   0
<truncation> CpyCell= 2 ct_AN=  18 FNAN SNAN  47   0
<truncation> CpyCell= 2 ct_AN=  19 FNAN SNAN  49   0
<truncation> CpyCell= 2 ct_AN=  20 FNAN SNAN  49   0
     ..........
     ......

<Check_System> The system is slab.
lattice vectors (bohr)
A  = 37.299978480367,  0.000000000000,  0.000000000000
B  = -18.649989240184, 32.302728872609,  0.000000000000
C  =  0.000000000000,  0.000000000000, 39.684245760157
reciprocal lattice vectors (bohr^-1)
RA =  0.168450105420,  0.097254713866, -0.000000000000
RB =  0.000000000000,  0.194509427732,  0.000000000000
RC =  0.000000000000, -0.000000000000,  0.158329462658
Grid_Origin -0.010010711282  0.145814204106  0.214589418949
Cell_Volume =  47815.194201431834 (Bohr^3)
GridVol     =      0.006832303698 (Bohr^3)
Grid_Origin -0.010010711282  0.145814204106  0.214589418949
Cell_Volume =  47815.194201431834 (Bohr^3)
GridVol     =      0.006832303698 (Bohr^3)
<UCell_Box> Info. of cutoff energy and num. of grids
lattice vectors (bohr)
A  = 37.299978480367,  0.000000000000,  0.000000000000
B  = -18.649989240184, 32.302728872609,  0.000000000000
C  =  0.000000000000,  0.000000000000, 39.684245760157
reciprocal lattice vectors (bohr^-1)
RA =  0.168450105420,  0.097254713866, -0.000000000000
RB =  0.000000000000,  0.194509427732,  0.000000000000
RC =  0.000000000000, -0.000000000000,  0.158329462658
Required cutoff energy (Ryd) for 3D-grids = 300.0000
    Used cutoff energy (Ryd) for 3D-grids = 306.4547, 306.4547, 292.3957
Num. of grids of a-, b-, and c-axes = 180, 180, 216
Grid_Origin -0.010010711282  0.145814204106  0.214589418949
Cell_Volume =  47815.194201431834 (Bohr^3)
GridVol     =      0.006832303698 (Bohr^3)
Cell vectors (bohr) of the grid cell (gtv)
  gtv_a =  0.207222102669,  0.000000000000,  0.000000000000
  gtv_b = -0.103611051334,  0.179459604848,  0.000000000000
  gtv_c =  0.000000000000,  0.000000000000,  0.183723360001
  |gtv_a| =  0.207222102669
  |gtv_b| =  0.207222102419
  |gtv_c| =  0.183723360001
Num. of grids overlapping with atom    1 = 132434
Num. of grids overlapping with atom    2 = 132436
Num. of grids overlapping with atom    3 = 132434
Num. of grids overlapping with atom    4 = 132436
Num. of grids overlapping with atom    5 = 132434
Num. of grids overlapping with atom    6 = 132436
Num. of grids overlapping with atom    7 = 132434
Num. of grids overlapping with atom    8 = 132436
Num. of grids overlapping with atom    9 = 132406
Num. of grids overlapping with atom   10 = 132443
Num. of grids overlapping with atom   11 = 132406
Num. of grids overlapping with atom   12 = 132443
Num. of grids overlapping with atom   13 = 132406
Num. of grids overlapping with atom   14 = 132443
Num. of grids overlapping with atom   15 = 132406
Num. of grids overlapping with atom   16 = 132443
Num. of grids overlapping with atom   17 = 132434
Num. of grids overlapping with atom   18 = 132436
Num. of grids overlapping with atom   19 = 132434
Num. of grids overlapping with atom   20 = 132436
     ..........
     ......


*******************************************************
             SCF calculation at MD = 1                
*******************************************************

<MD= 1>  Calculation of the overlap matrix
<MD= 1>  Calculation of the nonlocal matrix
<MD= 1>  Calculation of the VNA projector matrix

******************* MD= 1  SCF= 1 *******************
<Band>  Solving the eigenvalue problem...
 KGrids1:  -0.43750  -0.31250  -0.18750  -0.06250   0.06250   0.18750   0.31250   0.43750 
 KGrids2:  -0.43750  -0.31250  -0.18750  -0.06250   0.06250   0.18750   0.31250   0.43750 
 KGrids3:   0.00000 
<Band_DFT>  Eigen, time=24.054456
<Band_DFT>  DM, time=0.000006
    1    C  MulP   2.0022  2.0022 sum   4.0043
    2    C  MulP   2.0024  2.0024 sum   4.0047
    3    C  MulP   2.0016  2.0016 sum   4.0031
    4    C  MulP   2.0024  2.0024 sum   4.0048
    5    C  MulP   2.0028  2.0028 sum   4.0057
    6    C  MulP   2.0028  2.0028 sum   4.0057
    7    C  MulP   2.0025  2.0025 sum   4.0050
    8    C  MulP   2.0033  2.0033 sum   4.0065
    9    C  MulP   2.0028  2.0028 sum   4.0056
   10    C  MulP   2.0029  2.0029 sum   4.0058
   11    C  MulP   2.0004  2.0004 sum   4.0007
   12    C  MulP   2.0015  2.0015 sum   4.0029
   13    C  MulP   2.0026  2.0026 sum   4.0051
   14    C  MulP   2.0026  2.0026 sum   4.0052
   15    C  MulP   2.0033  2.0033 sum   4.0065
   16    C  MulP   2.0027  2.0027 sum   4.0053
   17    C  MulP   2.0028  2.0028 sum   4.0057
   18    C  MulP   2.0014  2.0014 sum   4.0029
   19    C  MulP   2.0020  2.0020 sum   4.0039
   20    C  MulP   1.9916  1.9916 sum   3.9833
     ..........
     ......

 Sum of MulP: up   =   264.50000 down          =   264.50000
              total=   529.00000 ideal(neutral)=   529.00000
<DFT>  Total Spin Moment (muB) =  0.000000000000
<DFT>  Mixing_weight= 0.050000000000
<DFT>  Uele   = -217.183741686437  dUele     =   1.000000000000
<DFT>  NormRD =    1.000000000000  Criterion =   0.000000010000

******************* MD= 1  SCF= 2 *******************
<Poisson>  Poisson's equation using FFT...
<Set_Hamiltonian>  Hamiltonian matrix for VNA+dVH+Vxc...
<Band>  Solving the eigenvalue problem...
 KGrids1:  -0.43750  -0.31250  -0.18750  -0.06250   0.06250   0.18750   0.31250   0.43750 
 KGrids2:  -0.43750  -0.31250  -0.18750  -0.06250   0.06250   0.18750   0.31250   0.43750 
 KGrids3:   0.00000 
<Band_DFT>  Eigen, time=13.933553
<Band_DFT>  DM, time=0.000000
    1    C  MulP   2.0022  2.0022 sum   4.0043
    2    C  MulP   2.0024  2.0024 sum   4.0047
    3    C  MulP   2.0016  2.0016 sum   4.0031
    4    C  MulP   2.0024  2.0024 sum   4.0048
    5    C  MulP   2.0028  2.0028 sum   4.0057
    6    C  MulP   2.0028  2.0028 sum   4.0057
    7    C  MulP   2.0025  2.0025 sum   4.0050
    8    C  MulP   2.0033  2.0033 sum   4.0065
    9    C  MulP   2.0028  2.0028 sum   4.0056
   10    C  MulP   2.0029  2.0029 sum   4.0058
   11    C  MulP   2.0004  2.0004 sum   4.0007
   12    C  MulP   2.0015  2.0015 sum   4.0029
   13    C  MulP   2.0026  2.0026 sum   4.0051
   14    C  MulP   2.0026  2.0026 sum   4.0052
   15    C  MulP   2.0033  2.0033 sum   4.0065
   16    C  MulP   2.0027  2.0027 sum   4.0053
   17    C  MulP   2.0028  2.0028 sum   4.0057
   18    C  MulP   2.0014  2.0014 sum   4.0029
   19    C  MulP   2.0020  2.0020 sum   4.0039
   20    C  MulP   1.9916  1.9916 sum   3.9833
     ..........
     ......

 Sum of MulP: up   =   264.50000 down          =   264.50000
              total=   529.00000 ideal(neutral)=   529.00000
<DFT>  Total Spin Moment (muB) =  0.000000000000
<DFT>  Mixing_weight= 0.010000000000
<DFT>  Uele   = -217.183741686437  dUele     =   0.000000000000
<DFT>  NormRD =   10.333890943508  Criterion =   0.000000010000

******************* MD= 1  SCF= 3 *******************
<Poisson>  Poisson's equation using FFT...
<Set_Hamiltonian>  Hamiltonian matrix for VNA+dVH+Vxc...
<Band>  Solving the eigenvalue problem...
 KGrids1:  -0.43750  -0.31250  -0.18750  -0.06250   0.06250   0.18750   0.31250   0.43750 
 KGrids2:  -0.43750  -0.31250  -0.18750  -0.06250   0.06250   0.18750   0.31250   0.43750 
 KGrids3:   0.00000 
<Band_DFT>  Eigen, time=13.983900
<Band_DFT>  DM, time=0.000000
    1    C  MulP   2.0021  2.0021 sum   4.0042
    2    C  MulP   2.0023  2.0023 sum   4.0046
    3    C  MulP   2.0016  2.0016 sum   4.0031
    4    C  MulP   2.0023  2.0023 sum   4.0046
    5    C  MulP   2.0028  2.0028 sum   4.0056
    6    C  MulP   2.0028  2.0028 sum   4.0055
    7    C  MulP   2.0024  2.0024 sum   4.0048
    8    C  MulP   2.0032  2.0032 sum   4.0064
    9    C  MulP   2.0027  2.0027 sum   4.0054
   10    C  MulP   2.0028  2.0028 sum   4.0056
   11    C  MulP   2.0003  2.0003 sum   4.0007
   12    C  MulP   2.0015  2.0015 sum   4.0030
   13    C  MulP   2.0025  2.0025 sum   4.0049
   14    C  MulP   2.0025  2.0025 sum   4.0050
   15    C  MulP   2.0032  2.0032 sum   4.0064
   16    C  MulP   2.0026  2.0026 sum   4.0052
   17    C  MulP   2.0028  2.0028 sum   4.0055
   18    C  MulP   2.0014  2.0014 sum   4.0027
   19    C  MulP   2.0018  2.0018 sum   4.0036
   20    C  MulP   1.9920  1.9920 sum   3.9841
     ..........
     ......

 Sum of MulP: up   =   264.50000 down          =   264.50000
              total=   529.00000 ideal(neutral)=   529.00000
<DFT>  Total Spin Moment (muB) =  0.000000000000
<DFT>  Mixing_weight= 0.300000000000
<DFT>  Uele   = -217.564997544912  dUele     =   0.381255858475
<DFT>  NormRD =   10.204313343914  Criterion =   0.000000010000

******************* MD= 1  SCF= 4 *******************
<Poisson>  Poisson's equation using FFT...
<Set_Hamiltonian>  Hamiltonian matrix for VNA+dVH+Vxc...
<Band>  Solving the eigenvalue problem...
 KGrids1:  -0.43750  -0.31250  -0.18750  -0.06250   0.06250   0.18750   0.31250   0.43750 
 KGrids2:  -0.43750  -0.31250  -0.18750  -0.06250   0.06250   0.18750   0.31250   0.43750 
 KGrids3:   0.00000 
<Band_DFT>  Eigen, time=13.935416
<Band_DFT>  DM, time=0.000001
    1    C  MulP   1.9991  1.9991 sum   3.9982
    2    C  MulP   1.9993  1.9993 sum   3.9986
    3    C  MulP   2.0006  2.0006 sum   4.0013
    4    C  MulP   1.9989  1.9989 sum   3.9978
    5    C  MulP   2.0001  2.0001 sum   4.0001
    6    C  MulP   1.9994  1.9994 sum   3.9989
    7    C  MulP   1.9994  1.9994 sum   3.9988
    8    C  MulP   1.9999  1.9999 sum   3.9999
    9    C  MulP   1.9995  1.9995 sum   3.9990
   10    C  MulP   1.9995  1.9995 sum   3.9989
   11    C  MulP   2.0009  2.0009 sum   4.0019
   12    C  MulP   2.0017  2.0017 sum   4.0034
   13    C  MulP   1.9990  1.9990 sum   3.9981
   14    C  MulP   1.9996  1.9996 sum   3.9992
   15    C  MulP   2.0004  2.0004 sum   4.0008
   16    C  MulP   1.9994  1.9994 sum   3.9988
   17    C  MulP   1.9999  1.9999 sum   3.9999
   18    C  MulP   1.9988  1.9988 sum   3.9977
   19    C  MulP   1.9981  1.9981 sum   3.9961
   20    C  MulP   2.0076  2.0076 sum   4.0152
     ..........
     ......

 Sum of MulP: up   =   264.50000 down          =   264.50000
              total=   529.00000 ideal(neutral)=   529.00000
<DFT>  Total Spin Moment (muB) =  0.000000000000
<DFT>  Mixing_weight= 0.300000000000
<DFT>  Uele   = -228.913678713421  dUele     =  11.348681168509
<DFT>  NormRD =    6.548975257840  Criterion =   0.000000010000

******************* MD= 1  SCF= 5 *******************
<Poisson>  Poisson's equation using FFT...
<Set_Hamiltonian>  Hamiltonian matrix for VNA+dVH+Vxc...
<Band>  Solving the eigenvalue problem...
 KGrids1:  -0.43750  -0.31250  -0.18750  -0.06250   0.06250   0.18750   0.31250   0.43750 
 KGrids2:  -0.43750  -0.31250  -0.18750  -0.06250   0.06250   0.18750   0.31250   0.43750 
 KGrids3:   0.00000 
<Band_DFT>  Eigen, time=13.977757
<Band_DFT>  DM, time=0.000000
    1    C  MulP   2.0005  2.0005 sum   4.0009
    2    C  MulP   2.0007  2.0007 sum   4.0013
    3    C  MulP   2.0006  2.0006 sum   4.0011
    4    C  MulP   2.0004  2.0004 sum   4.0008
    5    C  MulP   2.0005  2.0005 sum   4.0009
    6    C  MulP   2.0007  2.0007 sum   4.0014
    7    C  MulP   2.0005  2.0005 sum   4.0010
    8    C  MulP   2.0008  2.0008 sum   4.0016
    9    C  MulP   2.0007  2.0007 sum   4.0014
   10    C  MulP   2.0007  2.0007 sum   4.0014
   11    C  MulP   2.0012  2.0012 sum   4.0024
   12    C  MulP   2.0000  2.0000 sum   3.9999
   13    C  MulP   2.0007  2.0007 sum   4.0013
   14    C  MulP   2.0006  2.0006 sum   4.0011
   15    C  MulP   2.0008  2.0008 sum   4.0016
   16    C  MulP   2.0006  2.0006 sum   4.0013
   17    C  MulP   2.0005  2.0005 sum   4.0010
   18    C  MulP   2.0004  2.0004 sum   4.0008
   19    C  MulP   2.0010  2.0010 sum   4.0020
   20    C  MulP   1.9975  1.9975 sum   3.9950
     ..........
     ......

 Sum of MulP: up   =   264.50000 down          =   264.50000
              total=   529.00000 ideal(neutral)=   529.00000
<DFT>  Total Spin Moment (muB) =  0.000000000000
<DFT>  Mixing_weight= 0.300000000000
<DFT>  Uele   = -236.239351564898  dUele     =   7.325672851476
<DFT>  NormRD =    4.425496214400  Criterion =   0.000000010000

******************* MD= 1  SCF= 6 *******************
<Poisson>  Poisson's equation using FFT...
<Set_Hamiltonian>  Hamiltonian matrix for VNA+dVH+Vxc...
<Band>  Solving the eigenvalue problem...
 KGrids1:  -0.43750  -0.31250  -0.18750  -0.06250   0.06250   0.18750   0.31250   0.43750 
 KGrids2:  -0.43750  -0.31250  -0.18750  -0.06250   0.06250   0.18750   0.31250   0.43750 
 KGrids3:   0.00000 
<Band_DFT>  Eigen, time=13.913740
<Band_DFT>  DM, time=0.000000
    1    C  MulP   2.0003  2.0003 sum   4.0005
    2    C  MulP   2.0003  2.0003 sum   4.0006
    3    C  MulP   2.0004  2.0004 sum   4.0009
    4    C  MulP   2.0002  2.0002 sum   4.0004
    5    C  MulP   2.0004  2.0004 sum   4.0008
    6    C  MulP   2.0005  2.0005 sum   4.0010
    7    C  MulP   2.0003  2.0003 sum   4.0007
    8    C  MulP   2.0006  2.0006 sum   4.0012
    9    C  MulP   2.0005  2.0005 sum   4.0011
   10    C  MulP   2.0004  2.0004 sum   4.0008
   11    C  MulP   2.0010  2.0010 sum   4.0021
   12    C  MulP   2.0004  2.0004 sum   4.0008
   13    C  MulP   2.0004  2.0004 sum   4.0008
   14    C  MulP   2.0004  2.0004 sum   4.0008
   15    C  MulP   2.0007  2.0007 sum   4.0014
   16    C  MulP   2.0004  2.0004 sum   4.0009
   17    C  MulP   2.0004  2.0004 sum   4.0008
   18    C  MulP   2.0003  2.0003 sum   4.0005
   19    C  MulP   2.0004  2.0004 sum   4.0008
   20    C  MulP   2.0001  2.0001 sum   4.0003
     ..........
     ......

 Sum of MulP: up   =   264.50000 down          =   264.50000
              total=   529.00000 ideal(neutral)=   529.00000
<DFT>  Total Spin Moment (muB) =  0.000000000000
<DFT>  Mixing_weight= 0.300000000000
<DFT>  Uele   = -241.119044184094  dUele     =   4.879692619196
<DFT>  NormRD =    3.015565548585  Criterion =   0.000000010000

******************* MD= 1  SCF= 7 *******************
<Poisson>  Poisson's equation using FFT...
<Set_Hamiltonian>  Hamiltonian matrix for VNA+dVH+Vxc...
<Band>  Solving the eigenvalue problem...
 KGrids1:  -0.43750  -0.31250  -0.18750  -0.06250   0.06250   0.18750   0.31250   0.43750 
 KGrids2:  -0.43750  -0.31250  -0.18750  -0.06250   0.06250   0.18750   0.31250   0.43750 
 KGrids3:   0.00000 
<Band_DFT>  Eigen, time=13.952329
<Band_DFT>  DM, time=0.000001
    1    C  MulP   2.0003  2.0003 sum   4.0005
    2    C  MulP   2.0004  2.0004 sum   4.0007
    3    C  MulP   2.0004  2.0004 sum   4.0008
    4    C  MulP   2.0003  2.0003 sum   4.0005
    5    C  MulP   2.0004  2.0004 sum   4.0009
    6    C  MulP   2.0005  2.0005 sum   4.0010
    7    C  MulP   2.0004  2.0004 sum   4.0008
    8    C  MulP   2.0006  2.0006 sum   4.0013
    9    C  MulP   2.0006  2.0006 sum   4.0012
   10    C  MulP   2.0004  2.0004 sum   4.0009
   11    C  MulP   2.0009  2.0009 sum   4.0018
   12    C  MulP   2.0004  2.0004 sum   4.0007
   13    C  MulP   2.0005  2.0005 sum   4.0010
   14    C  MulP   2.0005  2.0005 sum   4.0009
   15    C  MulP   2.0007  2.0007 sum   4.0014
   16    C  MulP   2.0005  2.0005 sum   4.0009
   17    C  MulP   2.0004  2.0004 sum   4.0009
   18    C  MulP   2.0003  2.0003 sum   4.0006
   19    C  MulP   2.0004  2.0004 sum   4.0007
   20    C  MulP   1.9994  1.9994 sum   3.9987
     ..........
     ......

 Sum of MulP: up   =   264.50000 down          =   264.50000
              total=   529.00000 ideal(neutral)=   529.00000
<DFT>  Total Spin Moment (muB) =  0.000000000000
<DFT>  Mixing_weight= 0.300000000000
<DFT>  Uele   = -244.350563912240  dUele     =   3.231519728146
<DFT>  NormRD =    2.065195371015  Criterion =   0.000000010000

******************* MD= 1  SCF= 8 *******************
<Poisson>  Poisson's equation using FFT...
<Set_Hamiltonian>  Hamiltonian matrix for VNA+dVH+Vxc...
<Band>  Solving the eigenvalue problem...
 KGrids1:  -0.43750  -0.31250  -0.18750  -0.06250   0.06250   0.18750   0.31250   0.43750 
 KGrids2:  -0.43750  -0.31250  -0.18750  -0.06250   0.06250   0.18750   0.31250   0.43750 
 KGrids3:   0.00000 
<Band_DFT>  Eigen, time=13.906423
<Band_DFT>  DM, time=0.000000
    1    C  MulP   2.0002  2.0002 sum   4.0005
    2    C  MulP   2.0003  2.0003 sum   4.0007
    3    C  MulP   2.0004  2.0004 sum   4.0007
    4    C  MulP   2.0002  2.0002 sum   4.0005
    5    C  MulP   2.0004  2.0004 sum   4.0009
    6    C  MulP   2.0005  2.0005 sum   4.0010
    7    C  MulP   2.0004  2.0004 sum   4.0007
    8    C  MulP   2.0006  2.0006 sum   4.0012
    9    C  MulP   2.0006  2.0006 sum   4.0011
   10    C  MulP   2.0004  2.0004 sum   4.0008
   11    C  MulP   2.0009  2.0009 sum   4.0017
   12    C  MulP   2.0004  2.0004 sum   4.0009
   13    C  MulP   2.0005  2.0005 sum   4.0009
   14    C  MulP   2.0005  2.0005 sum   4.0009
   15    C  MulP   2.0007  2.0007 sum   4.0014
   16    C  MulP   2.0004  2.0004 sum   4.0009
   17    C  MulP   2.0004  2.0004 sum   4.0008
   18    C  MulP   2.0003  2.0003 sum   4.0006
   19    C  MulP   2.0003  2.0003 sum   4.0005
   20    C  MulP   1.9995  1.9995 sum   3.9990
     ..........
     ......

 Sum of MulP: up   =   264.50000 down          =   264.50000
              total=   529.00000 ideal(neutral)=   529.00000
<DFT>  Total Spin Moment (muB) =  0.000000000000
<DFT>  Mixing_weight= 0.300000000000
<DFT>  Uele   = -246.555158256032  dUele     =   2.204594343793
<DFT>  NormRD =    1.420651944247  Criterion =   0.000000010000

******************* MD= 1  SCF= 9 *******************
<Poisson>  Poisson's equation using FFT...
<Set_Hamiltonian>  Hamiltonian matrix for VNA+dVH+Vxc...
<Band>  Solving the eigenvalue problem...
 KGrids1:  -0.43750  -0.31250  -0.18750  -0.06250   0.06250   0.18750   0.31250   0.43750 
 KGrids2:  -0.43750  -0.31250  -0.18750  -0.06250   0.06250   0.18750   0.31250   0.43750 
 KGrids3:   0.00000 
<Band_DFT>  Eigen, time=13.951671
<Band_DFT>  DM, time=0.000001
    1    C  MulP   2.0002  2.0002 sum   4.0005
    2    C  MulP   2.0003  2.0003 sum   4.0007
    3    C  MulP   2.0004  2.0004 sum   4.0007
    4    C  MulP   2.0002  2.0002 sum   4.0005
    5    C  MulP   2.0004  2.0004 sum   4.0009
    6    C  MulP   2.0005  2.0005 sum   4.0010
    7    C  MulP   2.0003  2.0003 sum   4.0007
    8    C  MulP   2.0006  2.0006 sum   4.0012
    9    C  MulP   2.0005  2.0005 sum   4.0011
   10    C  MulP   2.0004  2.0004 sum   4.0008
   11    C  MulP   2.0008  2.0008 sum   4.0017
   12    C  MulP   2.0004  2.0004 sum   4.0009
   13    C  MulP   2.0005  2.0005 sum   4.0009
   14    C  MulP   2.0004  2.0004 sum   4.0009
   15    C  MulP   2.0007  2.0007 sum   4.0014
   16    C  MulP   2.0004  2.0004 sum   4.0008
   17    C  MulP   2.0004  2.0004 sum   4.0008
   18    C  MulP   2.0003  2.0003 sum   4.0005
   19    C  MulP   2.0002  2.0002 sum   4.0004
   20    C  MulP   1.9994  1.9994 sum   3.9989
     ..........
     ......

 Sum of MulP: up   =   264.50000 down          =   264.50000
              total=   529.00000 ideal(neutral)=   529.00000
<DFT>  Total Spin Moment (muB) =  0.000000000000
<DFT>  Mixing_weight= 0.300000000000
<DFT>  Uele   = -248.097905400392  dUele     =   1.542747144360
<DFT>  NormRD =    0.980897543839  Criterion =   0.000000010000

******************* MD= 1  SCF=10 *******************
<Poisson>  Poisson's equation using FFT...
<Set_Hamiltonian>  Hamiltonian matrix for VNA+dVH+Vxc...
<Band>  Solving the eigenvalue problem...
 KGrids1:  -0.43750  -0.31250  -0.18750  -0.06250   0.06250   0.18750   0.31250   0.43750 
 KGrids2:  -0.43750  -0.31250  -0.18750  -0.06250   0.06250   0.18750   0.31250   0.43750 
 KGrids3:   0.00000 
<Band_DFT>  Eigen, time=13.904226
<Band_DFT>  DM, time=0.000000
    1    C  MulP   2.0002  2.0002 sum   4.0004
    2    C  MulP   2.0003  2.0003 sum   4.0006
    3    C  MulP   2.0004  2.0004 sum   4.0007
    4    C  MulP   2.0002  2.0002 sum   4.0005
    5    C  MulP   2.0004  2.0004 sum   4.0009
    6    C  MulP   2.0005  2.0005 sum   4.0009
    7    C  MulP   2.0003  2.0003 sum   4.0007
    8    C  MulP   2.0006  2.0006 sum   4.0012
    9    C  MulP   2.0005  2.0005 sum   4.0011
   10    C  MulP   2.0004  2.0004 sum   4.0008
   11    C  MulP   2.0008  2.0008 sum   4.0017
   12    C  MulP   2.0004  2.0004 sum   4.0009
   13    C  MulP   2.0005  2.0005 sum   4.0009
   14    C  MulP   2.0004  2.0004 sum   4.0009
   15    C  MulP   2.0007  2.0007 sum   4.0014
   16    C  MulP   2.0004  2.0004 sum   4.0008
   17    C  MulP   2.0004  2.0004 sum   4.0008
   18    C  MulP   2.0003  2.0003 sum   4.0005
   19    C  MulP   2.0002  2.0002 sum   4.0004
   20    C  MulP   1.9994  1.9994 sum   3.9989
     ..........
     ......

 Sum of MulP: up   =   264.50000 down          =   264.50000
              total=   529.00000 ideal(neutral)=   529.00000
<DFT>  Total Spin Moment (muB) =  0.000000000000
<DFT>  Mixing_weight= 0.300000000000
<DFT>  Uele   = -249.210367682161  dUele     =   1.112462281769
<DFT>  NormRD =    0.679615046273  Criterion =   0.000000010000

******************* MD= 1  SCF=11 *******************
<Poisson>  Poisson's equation using FFT...
<Set_Hamiltonian>  Hamiltonian matrix for VNA+dVH+Vxc...
<Band>  Solving the eigenvalue problem...
 KGrids1:  -0.43750  -0.31250  -0.18750  -0.06250   0.06250   0.18750   0.31250   0.43750 
 KGrids2:  -0.43750  -0.31250  -0.18750  -0.06250   0.06250   0.18750   0.31250   0.43750 
 KGrids3:   0.00000 
<Band_DFT>  Eigen, time=13.957758
<Band_DFT>  DM, time=0.000000
    1    C  MulP   2.0002  2.0002 sum   4.0004
    2    C  MulP   2.0003  2.0003 sum   4.0006
    3    C  MulP   2.0004  2.0004 sum   4.0007
    4    C  MulP   2.0002  2.0002 sum   4.0005
    5    C  MulP   2.0004  2.0004 sum   4.0008
    6    C  MulP   2.0005  2.0005 sum   4.0009
    7    C  MulP   2.0003  2.0003 sum   4.0007
    8    C  MulP   2.0006  2.0006 sum   4.0012
    9    C  MulP   2.0005  2.0005 sum   4.0010
   10    C  MulP   2.0004  2.0004 sum   4.0008
   11    C  MulP   2.0008  2.0008 sum   4.0016
   12    C  MulP   2.0004  2.0004 sum   4.0009
   13    C  MulP   2.0005  2.0005 sum   4.0009
   14    C  MulP   2.0004  2.0004 sum   4.0009
   15    C  MulP   2.0007  2.0007 sum   4.0014
   16    C  MulP   2.0004  2.0004 sum   4.0008
   17    C  MulP   2.0004  2.0004 sum   4.0008
   18    C  MulP   2.0002  2.0002 sum   4.0005
   19    C  MulP   2.0002  2.0002 sum   4.0004
   20    C  MulP   1.9994  1.9994 sum   3.9989
     ..........
     ......

 Sum of MulP: up   =   264.50000 down          =   264.50000
              total=   529.00000 ideal(neutral)=   529.00000
<DFT>  Total Spin Moment (muB) =  0.000000000000
<DFT>  Mixing_weight= 0.300000000000
<DFT>  Uele   = -250.036948255776  dUele     =   0.826580573614
<DFT>  NormRD =    0.472326635077  Criterion =   0.000000010000

******************* MD= 1  SCF=12 *******************
<Poisson>  Poisson's equation using FFT...
<Set_Hamiltonian>  Hamiltonian matrix for VNA+dVH+Vxc...
<Band>  Solving the eigenvalue problem...
 KGrids1:  -0.43750  -0.31250  -0.18750  -0.06250   0.06250   0.18750   0.31250   0.43750 
 KGrids2:  -0.43750  -0.31250  -0.18750  -0.06250   0.06250   0.18750   0.31250   0.43750 
 KGrids3:   0.00000 
<Band_DFT>  Eigen, time=13.936198
<Band_DFT>  DM, time=0.000000
    1    C  MulP   2.0002  2.0002 sum   4.0004
    2    C  MulP   2.0003  2.0003 sum   4.0006
    3    C  MulP   2.0003  2.0003 sum   4.0007
    4    C  MulP   2.0002  2.0002 sum   4.0004
    5    C  MulP   2.0004  2.0004 sum   4.0008
    6    C  MulP   2.0005  2.0005 sum   4.0009
    7    C  MulP   2.0003  2.0003 sum   4.0006
    8    C  MulP   2.0006  2.0006 sum   4.0012
    9    C  MulP   2.0005  2.0005 sum   4.0010
   10    C  MulP   2.0004  2.0004 sum   4.0007
   11    C  MulP   2.0008  2.0008 sum   4.0016
   12    C  MulP   2.0004  2.0004 sum   4.0009
   13    C  MulP   2.0005  2.0005 sum   4.0009
   14    C  MulP   2.0004  2.0004 sum   4.0008
   15    C  MulP   2.0007  2.0007 sum   4.0014
   16    C  MulP   2.0004  2.0004 sum   4.0008
   17    C  MulP   2.0004  2.0004 sum   4.0008
   18    C  MulP   2.0002  2.0002 sum   4.0005
   19    C  MulP   2.0002  2.0002 sum   4.0003
   20    C  MulP   1.9994  1.9994 sum   3.9989
     ..........
     ......

 Sum of MulP: up   =   264.50000 down          =   264.50000
              total=   529.00000 ideal(neutral)=   529.00000
<DFT>  Total Spin Moment (muB) =  0.000000000000
<DFT>  Mixing_weight= 0.300000000000
<DFT>  Uele   = -250.669046550801  dUele     =   0.632098295025
<DFT>  NormRD =    0.329246694080  Criterion =   0.000000010000

******************* MD= 1  SCF=13 *******************
<Poisson>  Poisson's equation using FFT...
<Set_Hamiltonian>  Hamiltonian matrix for VNA+dVH+Vxc...
<Band>  Solving the eigenvalue problem...
 KGrids1:  -0.43750  -0.31250  -0.18750  -0.06250   0.06250   0.18750   0.31250   0.43750 
 KGrids2:  -0.43750  -0.31250  -0.18750  -0.06250   0.06250   0.18750   0.31250   0.43750 
 KGrids3:   0.00000 
<Band_DFT>  Eigen, time=13.955031
<Band_DFT>  DM, time=0.000001
    1    C  MulP   2.0002  2.0002 sum   4.0004
    2    C  MulP   2.0003  2.0003 sum   4.0006
    3    C  MulP   2.0003  2.0003 sum   4.0007
    4    C  MulP   2.0002  2.0002 sum   4.0004
    5    C  MulP   2.0004  2.0004 sum   4.0008
    6    C  MulP   2.0004  2.0004 sum   4.0009
    7    C  MulP   2.0003  2.0003 sum   4.0006
    8    C  MulP   2.0006  2.0006 sum   4.0012
    9    C  MulP   2.0005  2.0005 sum   4.0010
   10    C  MulP   2.0004  2.0004 sum   4.0007
   11    C  MulP   2.0008  2.0008 sum   4.0016
   12    C  MulP   2.0004  2.0004 sum   4.0009
   13    C  MulP   2.0004  2.0004 sum   4.0009
   14    C  MulP   2.0004  2.0004 sum   4.0008
   15    C  MulP   2.0007  2.0007 sum   4.0014
   16    C  MulP   2.0004  2.0004 sum   4.0008
   17    C  MulP   2.0004  2.0004 sum   4.0007
   18    C  MulP   2.0002  2.0002 sum   4.0005
   19    C  MulP   2.0002  2.0002 sum   4.0003
   20    C  MulP   1.9994  1.9994 sum   3.9988
     ..........
     ......

 Sum of MulP: up   =   264.50000 down          =   264.50000
              total=   529.00000 ideal(neutral)=   529.00000
<DFT>  Total Spin Moment (muB) =  0.000000000000
<DFT>  Mixing_weight= 0.300000000000
<DFT>  Uele   = -251.165354354942  dUele     =   0.496307804141
<DFT>  NormRD =    0.230277400122  Criterion =   0.000000010000

******************* MD= 1  SCF=14 *******************
<Poisson>  Poisson's equation using FFT...
<Set_Hamiltonian>  Hamiltonian matrix for VNA+dVH+Vxc...
<Band>  Solving the eigenvalue problem...
 KGrids1:  -0.43750  -0.31250  -0.18750  -0.06250   0.06250   0.18750   0.31250   0.43750 
 KGrids2:  -0.43750  -0.31250  -0.18750  -0.06250   0.06250   0.18750   0.31250   0.43750 
 KGrids3:   0.00000 
<Band_DFT>  Eigen, time=13.911896
<Band_DFT>  DM, time=0.000000
    1    C  MulP   2.0002  2.0002 sum   4.0004
    2    C  MulP   2.0003  2.0003 sum   4.0006
    3    C  MulP   2.0003  2.0003 sum   4.0007
    4    C  MulP   2.0002  2.0002 sum   4.0004
    5    C  MulP   2.0004  2.0004 sum   4.0008
    6    C  MulP   2.0004  2.0004 sum   4.0009
    7    C  MulP   2.0003  2.0003 sum   4.0006
    8    C  MulP   2.0006  2.0006 sum   4.0011
    9    C  MulP   2.0005  2.0005 sum   4.0010
   10    C  MulP   2.0004  2.0004 sum   4.0007
   11    C  MulP   2.0008  2.0008 sum   4.0016
   12    C  MulP   2.0004  2.0004 sum   4.0009
   13    C  MulP   2.0004  2.0004 sum   4.0009
   14    C  MulP   2.0004  2.0004 sum   4.0008
   15    C  MulP   2.0007  2.0007 sum   4.0013
   16    C  MulP   2.0004  2.0004 sum   4.0008
   17    C  MulP   2.0004  2.0004 sum   4.0007
   18    C  MulP   2.0002  2.0002 sum   4.0004
   19    C  MulP   2.0002  2.0002 sum   4.0003
   20    C  MulP   1.9994  1.9994 sum   3.9988
     ..........
     ......

 Sum of MulP: up   =   264.50000 down          =   264.50000
              total=   529.00000 ideal(neutral)=   529.00000
<DFT>  Total Spin Moment (muB) =  0.000000000000
<DFT>  Mixing_weight= 0.300000000000
<DFT>  Uele   = -251.564378599410  dUele     =   0.399024244468
<DFT>  NormRD =    0.161675212538  Criterion =   0.000000010000

******************* MD= 1  SCF=15 *******************
<Poisson>  Poisson's equation using FFT...
<Set_Hamiltonian>  Hamiltonian matrix for VNA+dVH+Vxc...
<Band>  Solving the eigenvalue problem...
 KGrids1:  -0.43750  -0.31250  -0.18750  -0.06250   0.06250   0.18750   0.31250   0.43750 
 KGrids2:  -0.43750  -0.31250  -0.18750  -0.06250   0.06250   0.18750   0.31250   0.43750 
 KGrids3:   0.00000 
<Band_DFT>  Eigen, time=13.944972
<Band_DFT>  DM, time=0.000000
    1    C  MulP   2.0002  2.0002 sum   4.0004
    2    C  MulP   2.0003  2.0003 sum   4.0006
    3    C  MulP   2.0003  2.0003 sum   4.0007
    4    C  MulP   2.0002  2.0002 sum   4.0004
    5    C  MulP   2.0004  2.0004 sum   4.0008
    6    C  MulP   2.0004  2.0004 sum   4.0009
    7    C  MulP   2.0003  2.0003 sum   4.0006
    8    C  MulP   2.0006  2.0006 sum   4.0011
    9    C  MulP   2.0005  2.0005 sum   4.0010
   10    C  MulP   2.0003  2.0003 sum   4.0007
   11    C  MulP   2.0008  2.0008 sum   4.0016
   12    C  MulP   2.0004  2.0004 sum   4.0009
   13    C  MulP   2.0004  2.0004 sum   4.0009
   14    C  MulP   2.0004  2.0004 sum   4.0008
   15    C  MulP   2.0007  2.0007 sum   4.0013
   16    C  MulP   2.0004  2.0004 sum   4.0007
   17    C  MulP   2.0004  2.0004 sum   4.0007
   18    C  MulP   2.0002  2.0002 sum   4.0004
   19    C  MulP   2.0002  2.0002 sum   4.0003
   20    C  MulP   1.9994  1.9994 sum   3.9988
     ..........
     ......

 Sum of MulP: up   =   264.50000 down          =   264.50000
              total=   529.00000 ideal(neutral)=   529.00000
<DFT>  Total Spin Moment (muB) =  0.000000000000
<DFT>  Mixing_weight= 0.030000000000
<DFT>  Uele   = -251.891606000254  dUele     =   0.327227400845
<DFT>  NormRD =    0.114988789609  Criterion =   0.000000010000

******************* MD= 1  SCF=16 *******************
<Poisson>  Poisson's equation using FFT...
<Set_Hamiltonian>  Hamiltonian matrix for VNA+dVH+Vxc...
<Band>  Solving the eigenvalue problem...
 KGrids1:  -0.43750  -0.31250  -0.18750  -0.06250   0.06250   0.18750   0.31250   0.43750 
 KGrids2:  -0.43750  -0.31250  -0.18750  -0.06250   0.06250   0.18750   0.31250   0.43750 
 KGrids3:   0.00000 
<Band_DFT>  Eigen, time=13.970405
<Band_DFT>  DM, time=0.000000
    1    C  MulP   2.0001  2.0001 sum   4.0001
    2    C  MulP   2.0002  2.0002 sum   4.0003
    3    C  MulP   2.0002  2.0002 sum   4.0004
    4    C  MulP   2.0001  2.0001 sum   4.0002
    5    C  MulP   2.0003  2.0003 sum   4.0006
    6    C  MulP   2.0003  2.0003 sum   4.0007
    7    C  MulP   2.0002  2.0002 sum   4.0005
    8    C  MulP   2.0005  2.0005 sum   4.0010
    9    C  MulP   2.0004  2.0004 sum   4.0008
   10    C  MulP   2.0002  2.0002 sum   4.0005
   11    C  MulP   2.0007  2.0007 sum   4.0014
   12    C  MulP   2.0004  2.0004 sum   4.0008
   13    C  MulP   2.0004  2.0004 sum   4.0007
   14    C  MulP   2.0003  2.0003 sum   4.0007
   15    C  MulP   2.0006  2.0006 sum   4.0012
   16    C  MulP   2.0003  2.0003 sum   4.0005
   17    C  MulP   2.0003  2.0003 sum   4.0005
   18    C  MulP   2.0001  2.0001 sum   4.0002
   19    C  MulP   2.0001  2.0001 sum   4.0002
   20    C  MulP   1.9996  1.9996 sum   3.9993
     ..........
     ......

 Sum of MulP: up   =   264.50000 down          =   264.50000
              total=   529.00000 ideal(neutral)=   529.00000
<DFT>  Total Spin Moment (muB) =  0.000000000000
<DFT>  Mixing_weight= 0.030000000000
<DFT>  Uele   = -253.745247011716  dUele     =   1.853641011462
<DFT>  NormRD =    0.013537032158  Criterion =   0.000000010000

******************* MD= 1  SCF=17 *******************
<Poisson>  Poisson's equation using FFT...
<Set_Hamiltonian>  Hamiltonian matrix for VNA+dVH+Vxc...
<Band>  Solving the eigenvalue problem...
 KGrids1:  -0.43750  -0.31250  -0.18750  -0.06250   0.06250   0.18750   0.31250   0.43750 
 KGrids2:  -0.43750  -0.31250  -0.18750  -0.06250   0.06250   0.18750   0.31250   0.43750 
 KGrids3:   0.00000 
<Band_DFT>  Eigen, time=13.960750
<Band_DFT>  DM, time=0.000000
    1    C  MulP   2.0005  2.0005 sum   4.0009
    2    C  MulP   2.0006  2.0006 sum   4.0012
    3    C  MulP   2.0006  2.0006 sum   4.0012
    4    C  MulP   2.0005  2.0005 sum   4.0010
    5    C  MulP   2.0006  2.0006 sum   4.0012
    6    C  MulP   2.0007  2.0007 sum   4.0014
    7    C  MulP   2.0005  2.0005 sum   4.0009
    8    C  MulP   2.0008  2.0008 sum   4.0016
    9    C  MulP   2.0007  2.0007 sum   4.0015
   10    C  MulP   2.0006  2.0006 sum   4.0012
   11    C  MulP   2.0009  2.0009 sum   4.0017
   12    C  MulP   2.0004  2.0004 sum   4.0007
   13    C  MulP   2.0006  2.0006 sum   4.0013
   14    C  MulP   2.0006  2.0006 sum   4.0011
   15    C  MulP   2.0009  2.0009 sum   4.0017
   16    C  MulP   2.0006  2.0006 sum   4.0013
   17    C  MulP   2.0006  2.0006 sum   4.0011
   18    C  MulP   2.0004  2.0004 sum   4.0008
   19    C  MulP   2.0002  2.0002 sum   4.0004
   20    C  MulP   1.9984  1.9984 sum   3.9968
     ..........
     ......

 Sum of MulP: up   =   264.50000 down          =   264.50000
              total=   529.00000 ideal(neutral)=   529.00000
<DFT>  Total Spin Moment (muB) =  0.000000000000
<DFT>  Mixing_weight= 0.030000000000
<DFT>  Uele   = -253.895022845651  dUele     =   0.149775833935
<DFT>  NormRD =    0.030592246050  Criterion =   0.000000010000

******************* MD= 1  SCF=18 *******************
<Poisson>  Poisson's equation using FFT...
<Set_Hamiltonian>  Hamiltonian matrix for VNA+dVH+Vxc...
<Band>  Solving the eigenvalue problem...
 KGrids1:  -0.43750  -0.31250  -0.18750  -0.06250   0.06250   0.18750   0.31250   0.43750 
 KGrids2:  -0.43750  -0.31250  -0.18750  -0.06250   0.06250   0.18750   0.31250   0.43750 
 KGrids3:   0.00000 
<Band_DFT>  Eigen, time=13.912551
<Band_DFT>  DM, time=0.000000
    1    C  MulP   2.0001  2.0001 sum   4.0003
    2    C  MulP   2.0002  2.0002 sum   4.0005
    3    C  MulP   2.0003  2.0003 sum   4.0007
    4    C  MulP   2.0002  2.0002 sum   4.0003
    5    C  MulP   2.0004  2.0004 sum   4.0007
    6    C  MulP   2.0004  2.0004 sum   4.0008
    7    C  MulP   2.0002  2.0002 sum   4.0005
    8    C  MulP   2.0005  2.0005 sum   4.0010
    9    C  MulP   2.0004  2.0004 sum   4.0009
   10    C  MulP   2.0003  2.0003 sum   4.0006
   11    C  MulP   2.0008  2.0008 sum   4.0016
   12    C  MulP   2.0005  2.0005 sum   4.0010
   13    C  MulP   2.0004  2.0004 sum   4.0008
   14    C  MulP   2.0004  2.0004 sum   4.0007
   15    C  MulP   2.0006  2.0006 sum   4.0013
   16    C  MulP   2.0003  2.0003 sum   4.0007
   17    C  MulP   2.0003  2.0003 sum   4.0006
   18    C  MulP   2.0002  2.0002 sum   4.0004
   19    C  MulP   2.0002  2.0002 sum   4.0003
   20    C  MulP   1.9998  1.9998 sum   3.9995
     ..........
     ......

 Sum of MulP: up   =   264.50000 down          =   264.50000
              total=   529.00000 ideal(neutral)=   529.00000
<DFT>  Total Spin Moment (muB) =  0.000000000000
<DFT>  Mixing_weight= 0.030000000000
<DFT>  Uele   = -253.926645570826  dUele     =   0.031622725175
<DFT>  NormRD =    0.005995178543  Criterion =   0.000000010000

******************* MD= 1  SCF=19 *******************
<Poisson>  Poisson's equation using FFT...
<Set_Hamiltonian>  Hamiltonian matrix for VNA+dVH+Vxc...
<Band>  Solving the eigenvalue problem...
 KGrids1:  -0.43750  -0.31250  -0.18750  -0.06250   0.06250   0.18750   0.31250   0.43750 
 KGrids2:  -0.43750  -0.31250  -0.18750  -0.06250   0.06250   0.18750   0.31250   0.43750 
 KGrids3:   0.00000 
<Band_DFT>  Eigen, time=13.993369
<Band_DFT>  DM, time=0.000000
    1    C  MulP   2.0001  2.0001 sum   4.0002
    2    C  MulP   2.0002  2.0002 sum   4.0004
    3    C  MulP   2.0002  2.0002 sum   4.0003
    4    C  MulP   2.0001  2.0001 sum   4.0003
    5    C  MulP   2.0003  2.0003 sum   4.0007
    6    C  MulP   2.0004  2.0004 sum   4.0008
    7    C  MulP   2.0003  2.0003 sum   4.0006
    8    C  MulP   2.0006  2.0006 sum   4.0011
    9    C  MulP   2.0005  2.0005 sum   4.0009
   10    C  MulP   2.0003  2.0003 sum   4.0005
   11    C  MulP   2.0006  2.0006 sum   4.0012
   12    C  MulP   2.0003  2.0003 sum   4.0006
   13    C  MulP   2.0004  2.0004 sum   4.0008
   14    C  MulP   2.0004  2.0004 sum   4.0008
   15    C  MulP   2.0006  2.0006 sum   4.0013
   16    C  MulP   2.0003  2.0003 sum   4.0007
   17    C  MulP   2.0003  2.0003 sum   4.0006
   18    C  MulP   2.0001  2.0001 sum   4.0002
   19    C  MulP   2.0001  2.0001 sum   4.0001
   20    C  MulP   1.9990  1.9990 sum   3.9980
     ..........
     ......

 Sum of MulP: up   =   264.50000 down          =   264.50000
              total=   529.00000 ideal(neutral)=   529.00000
<DFT>  Total Spin Moment (muB) =  0.000000000000
<DFT>  Mixing_weight= 0.030000000000
<DFT>  Uele   = -253.978348882672  dUele     =   0.051703311846
<DFT>  NormRD =    0.006393472350  Criterion =   0.000000010000

******************* MD= 1  SCF=20 *******************
<Poisson>  Poisson's equation using FFT...
<Set_Hamiltonian>  Hamiltonian matrix for VNA+dVH+Vxc...
<Band>  Solving the eigenvalue problem...
 KGrids1:  -0.43750  -0.31250  -0.18750  -0.06250   0.06250   0.18750   0.31250   0.43750 
 KGrids2:  -0.43750  -0.31250  -0.18750  -0.06250   0.06250   0.18750   0.31250   0.43750 
 KGrids3:   0.00000 
<Band_DFT>  Eigen, time=13.921435
<Band_DFT>  DM, time=0.000000
    1    C  MulP   2.0002  2.0002 sum   4.0003
    2    C  MulP   2.0003  2.0003 sum   4.0005
    3    C  MulP   2.0004  2.0004 sum   4.0007
    4    C  MulP   2.0002  2.0002 sum   4.0004
    5    C  MulP   2.0004  2.0004 sum   4.0008
    6    C  MulP   2.0004  2.0004 sum   4.0008
    7    C  MulP   2.0003  2.0003 sum   4.0005
    8    C  MulP   2.0005  2.0005 sum   4.0011
    9    C  MulP   2.0005  2.0005 sum   4.0009
   10    C  MulP   2.0003  2.0003 sum   4.0007
   11    C  MulP   2.0008  2.0008 sum   4.0017
   12    C  MulP   2.0005  2.0005 sum   4.0009
   13    C  MulP   2.0004  2.0004 sum   4.0009
   14    C  MulP   2.0004  2.0004 sum   4.0008
   15    C  MulP   2.0006  2.0006 sum   4.0013
   16    C  MulP   2.0004  2.0004 sum   4.0007
   17    C  MulP   2.0003  2.0003 sum   4.0007
   18    C  MulP   2.0002  2.0002 sum   4.0004
   19    C  MulP   2.0002  2.0002 sum   4.0004
   20    C  MulP   1.9996  1.9996 sum   3.9991
     ..........
     ......

 Sum of MulP: up   =   264.50000 down          =   264.50000
              total=   529.00000 ideal(neutral)=   529.00000
<DFT>  Total Spin Moment (muB) =  0.000000000000
<DFT>  Mixing_weight= 0.030000000000
<DFT>  Uele   = -254.010731554324  dUele     =   0.032382671653
<DFT>  NormRD =    0.002220803967  Criterion =   0.000000010000

******************* MD= 1  SCF=21 *******************
<Poisson>  Poisson's equation using FFT...
<Set_Hamiltonian>  Hamiltonian matrix for VNA+dVH+Vxc...
<Band>  Solving the eigenvalue problem...
 KGrids1:  -0.43750  -0.31250  -0.18750  -0.06250   0.06250   0.18750   0.31250   0.43750 
 KGrids2:  -0.43750  -0.31250  -0.18750  -0.06250   0.06250   0.18750   0.31250   0.43750 
 KGrids3:   0.00000 
<Band_DFT>  Eigen, time=13.955569
<Band_DFT>  DM, time=0.000000
    1    C  MulP   2.0002  2.0002 sum   4.0003
    2    C  MulP   2.0003  2.0003 sum   4.0005
    3    C  MulP   2.0003  2.0003 sum   4.0006
    4    C  MulP   2.0002  2.0002 sum   4.0004
    5    C  MulP   2.0004  2.0004 sum   4.0008
    6    C  MulP   2.0004  2.0004 sum   4.0008
    7    C  MulP   2.0003  2.0003 sum   4.0006
    8    C  MulP   2.0005  2.0005 sum   4.0011
    9    C  MulP   2.0005  2.0005 sum   4.0009
   10    C  MulP   2.0003  2.0003 sum   4.0006
   11    C  MulP   2.0007  2.0007 sum   4.0015
   12    C  MulP   2.0004  2.0004 sum   4.0008
   13    C  MulP   2.0004  2.0004 sum   4.0008
   14    C  MulP   2.0004  2.0004 sum   4.0008
   15    C  MulP   2.0006  2.0006 sum   4.0013
   16    C  MulP   2.0004  2.0004 sum   4.0007
   17    C  MulP   2.0003  2.0003 sum   4.0007
   18    C  MulP   2.0002  2.0002 sum   4.0004
   19    C  MulP   2.0001  2.0001 sum   4.0003
   20    C  MulP   1.9994  1.9994 sum   3.9988
     ..........
     ......

 Sum of MulP: up   =   264.50000 down          =   264.50000
              total=   529.00000 ideal(neutral)=   529.00000
<DFT>  Total Spin Moment (muB) =  0.000000000000
<DFT>  Mixing_weight= 0.030000000000
<DFT>  Uele   = -254.025851605893  dUele     =   0.015120051568
<DFT>  NormRD =    0.000638946559  Criterion =   0.000000010000

******************* MD= 1  SCF=22 *******************
<Poisson>  Poisson's equation using FFT...
<Set_Hamiltonian>  Hamiltonian matrix for VNA+dVH+Vxc...
<Band>  Solving the eigenvalue problem...
 KGrids1:  -0.43750  -0.31250  -0.18750  -0.06250   0.06250   0.18750   0.31250   0.43750 
 KGrids2:  -0.43750  -0.31250  -0.18750  -0.06250   0.06250   0.18750   0.31250   0.43750 
 KGrids3:   0.00000 
<Band_DFT>  Eigen, time=13.910121
<Band_DFT>  DM, time=0.000000
    1    C  MulP   2.0002  2.0002 sum   4.0003
    2    C  MulP   2.0003  2.0003 sum   4.0005
    3    C  MulP   2.0003  2.0003 sum   4.0006
    4    C  MulP   2.0002  2.0002 sum   4.0004
    5    C  MulP   2.0004  2.0004 sum   4.0007
    6    C  MulP   2.0004  2.0004 sum   4.0008
    7    C  MulP   2.0003  2.0003 sum   4.0005
    8    C  MulP   2.0005  2.0005 sum   4.0011
    9    C  MulP   2.0005  2.0005 sum   4.0009
   10    C  MulP   2.0003  2.0003 sum   4.0006
   11    C  MulP   2.0008  2.0008 sum   4.0015
   12    C  MulP   2.0004  2.0004 sum   4.0008
   13    C  MulP   2.0004  2.0004 sum   4.0008
   14    C  MulP   2.0004  2.0004 sum   4.0008
   15    C  MulP   2.0006  2.0006 sum   4.0013
   16    C  MulP   2.0003  2.0003 sum   4.0007
   17    C  MulP   2.0003  2.0003 sum   4.0007
   18    C  MulP   2.0002  2.0002 sum   4.0004
   19    C  MulP   2.0002  2.0002 sum   4.0003
   20    C  MulP   1.9994  1.9994 sum   3.9989
     ..........
     ......

 Sum of MulP: up   =   264.50000 down          =   264.50000
              total=   529.00000 ideal(neutral)=   529.00000
<DFT>  Total Spin Moment (muB) =  0.000000000000
<DFT>  Mixing_weight= 0.030000000000
<DFT>  Uele   = -254.035280752417  dUele     =   0.009429146524
<DFT>  NormRD =    0.000490512343  Criterion =   0.000000010000

******************* MD= 1  SCF=23 *******************
<Poisson>  Poisson's equation using FFT...
<Set_Hamiltonian>  Hamiltonian matrix for VNA+dVH+Vxc...
<Band>  Solving the eigenvalue problem...
 KGrids1:  -0.43750  -0.31250  -0.18750  -0.06250   0.06250   0.18750   0.31250   0.43750 
 KGrids2:  -0.43750  -0.31250  -0.18750  -0.06250   0.06250   0.18750   0.31250   0.43750 
 KGrids3:   0.00000 
<Band_DFT>  Eigen, time=13.956112
<Band_DFT>  DM, time=0.000000
    1    C  MulP   2.0002  2.0002 sum   4.0003
    2    C  MulP   2.0003  2.0003 sum   4.0005
    3    C  MulP   2.0003  2.0003 sum   4.0006
    4    C  MulP   2.0002  2.0002 sum   4.0004
    5    C  MulP   2.0004  2.0004 sum   4.0008
    6    C  MulP   2.0004  2.0004 sum   4.0008
    7    C  MulP   2.0003  2.0003 sum   4.0006
    8    C  MulP   2.0005  2.0005 sum   4.0011
    9    C  MulP   2.0005  2.0005 sum   4.0009
   10    C  MulP   2.0003  2.0003 sum   4.0006
   11    C  MulP   2.0008  2.0008 sum   4.0015
   12    C  MulP   2.0004  2.0004 sum   4.0008
   13    C  MulP   2.0004  2.0004 sum   4.0008
   14    C  MulP   2.0004  2.0004 sum   4.0008
   15    C  MulP   2.0006  2.0006 sum   4.0013
   16    C  MulP   2.0003  2.0003 sum   4.0007
   17    C  MulP   2.0003  2.0003 sum   4.0007
   18    C  MulP   2.0002  2.0002 sum   4.0004
   19    C  MulP   2.0001  2.0001 sum   4.0003
   20    C  MulP   1.9994  1.9994 sum   3.9989
     ..........
     ......

 Sum of MulP: up   =   264.50000 down          =   264.50000
              total=   529.00000 ideal(neutral)=   529.00000
<DFT>  Total Spin Moment (muB) =  0.000000000000
<DFT>  Mixing_weight= 0.030000000000
<DFT>  Uele   = -254.041900712755  dUele     =   0.006619960338
<DFT>  NormRD =    0.000181424239  Criterion =   0.000000010000

******************* MD= 1  SCF=24 *******************
<Poisson>  Poisson's equation using FFT...
<Set_Hamiltonian>  Hamiltonian matrix for VNA+dVH+Vxc...
<Band>  Solving the eigenvalue problem...
 KGrids1:  -0.43750  -0.31250  -0.18750  -0.06250   0.06250   0.18750   0.31250   0.43750 
 KGrids2:  -0.43750  -0.31250  -0.18750  -0.06250   0.06250   0.18750   0.31250   0.43750 
 KGrids3:   0.00000 
<Band_DFT>  Eigen, time=13.973790
<Band_DFT>  DM, time=0.000000
    1    C  MulP   2.0002  2.0002 sum   4.0003
    2    C  MulP   2.0003  2.0003 sum   4.0005
    3    C  MulP   2.0003  2.0003 sum   4.0006
    4    C  MulP   2.0002  2.0002 sum   4.0004
    5    C  MulP   2.0004  2.0004 sum   4.0008
    6    C  MulP   2.0004  2.0004 sum   4.0008
    7    C  MulP   2.0003  2.0003 sum   4.0006
    8    C  MulP   2.0005  2.0005 sum   4.0011
    9    C  MulP   2.0005  2.0005 sum   4.0009
   10    C  MulP   2.0003  2.0003 sum   4.0006
   11    C  MulP   2.0008  2.0008 sum   4.0015
   12    C  MulP   2.0004  2.0004 sum   4.0008
   13    C  MulP   2.0004  2.0004 sum   4.0008
   14    C  MulP   2.0004  2.0004 sum   4.0008
   15    C  MulP   2.0006  2.0006 sum   4.0013
   16    C  MulP   2.0003  2.0003 sum   4.0007
   17    C  MulP   2.0003  2.0003 sum   4.0007
   18    C  MulP   2.0002  2.0002 sum   4.0004
   19    C  MulP   2.0001  2.0001 sum   4.0003
   20    C  MulP   1.9994  1.9994 sum   3.9989
     ..........
     ......

 Sum of MulP: up   =   264.50000 down          =   264.50000
              total=   529.00000 ideal(neutral)=   529.00000
<DFT>  Total Spin Moment (muB) =  0.000000000000
<DFT>  Mixing_weight= 0.030000000000
<DFT>  Uele   = -254.044492835361  dUele     =   0.002592122606
<DFT>  NormRD =    0.000074346236  Criterion =   0.000000010000

******************* MD= 1  SCF=25 *******************
<Poisson>  Poisson's equation using FFT...
<Set_Hamiltonian>  Hamiltonian matrix for VNA+dVH+Vxc...
<Band>  Solving the eigenvalue problem...
 KGrids1:  -0.43750  -0.31250  -0.18750  -0.06250   0.06250   0.18750   0.31250   0.43750 
 KGrids2:  -0.43750  -0.31250  -0.18750  -0.06250   0.06250   0.18750   0.31250   0.43750 
 KGrids3:   0.00000 
<Band_DFT>  Eigen, time=13.990366
<Band_DFT>  DM, time=0.000000
    1    C  MulP   2.0002  2.0002 sum   4.0003
    2    C  MulP   2.0003  2.0003 sum   4.0005
    3    C  MulP   2.0003  2.0003 sum   4.0006
    4    C  MulP   2.0002  2.0002 sum   4.0004
    5    C  MulP   2.0004  2.0004 sum   4.0007
    6    C  MulP   2.0004  2.0004 sum   4.0008
    7    C  MulP   2.0003  2.0003 sum   4.0005
    8    C  MulP   2.0005  2.0005 sum   4.0011
    9    C  MulP   2.0005  2.0005 sum   4.0009
   10    C  MulP   2.0003  2.0003 sum   4.0006
   11    C  MulP   2.0008  2.0008 sum   4.0015
   12    C  MulP   2.0004  2.0004 sum   4.0008
   13    C  MulP   2.0004  2.0004 sum   4.0008
   14    C  MulP   2.0004  2.0004 sum   4.0008
   15    C  MulP   2.0006  2.0006 sum   4.0013
   16    C  MulP   2.0003  2.0003 sum   4.0007
   17    C  MulP   2.0003  2.0003 sum   4.0007
   18    C  MulP   2.0002  2.0002 sum   4.0004
   19    C  MulP   2.0001  2.0001 sum   4.0003
   20    C  MulP   1.9994  1.9994 sum   3.9989
     ..........
     ......

 Sum of MulP: up   =   264.50000 down          =   264.50000
              total=   529.00000 ideal(neutral)=   529.00000
<DFT>  Total Spin Moment (muB) =  0.000000000000
<DFT>  Mixing_weight= 0.030000000000
<DFT>  Uele   = -254.045449546828  dUele     =   0.000956711467
<DFT>  NormRD =    0.000048689930  Criterion =   0.000000010000

******************* MD= 1  SCF=26 *******************
<Poisson>  Poisson's equation using FFT...
<Set_Hamiltonian>  Hamiltonian matrix for VNA+dVH+Vxc...
<Band>  Solving the eigenvalue problem...
 KGrids1:  -0.43750  -0.31250  -0.18750  -0.06250   0.06250   0.18750   0.31250   0.43750 
 KGrids2:  -0.43750  -0.31250  -0.18750  -0.06250   0.06250   0.18750   0.31250   0.43750 
 KGrids3:   0.00000 
<Band_DFT>  Eigen, time=13.939885
<Band_DFT>  DM, time=0.000000
    1    C  MulP   2.0002  2.0002 sum   4.0003
    2    C  MulP   2.0003  2.0003 sum   4.0005
    3    C  MulP   2.0003  2.0003 sum   4.0006
    4    C  MulP   2.0002  2.0002 sum   4.0004
    5    C  MulP   2.0004  2.0004 sum   4.0008
    6    C  MulP   2.0004  2.0004 sum   4.0008
    7    C  MulP   2.0003  2.0003 sum   4.0006
    8    C  MulP   2.0005  2.0005 sum   4.0011
    9    C  MulP   2.0005  2.0005 sum   4.0009
   10    C  MulP   2.0003  2.0003 sum   4.0006
   11    C  MulP   2.0008  2.0008 sum   4.0015
   12    C  MulP   2.0004  2.0004 sum   4.0008
   13    C  MulP   2.0004  2.0004 sum   4.0008
   14    C  MulP   2.0004  2.0004 sum   4.0008
   15    C  MulP   2.0006  2.0006 sum   4.0013
   16    C  MulP   2.0003  2.0003 sum   4.0007
   17    C  MulP   2.0003  2.0003 sum   4.0007
   18    C  MulP   2.0002  2.0002 sum   4.0004
   19    C  MulP   2.0001  2.0001 sum   4.0003
   20    C  MulP   1.9994  1.9994 sum   3.9989
     ..........
     ......

 Sum of MulP: up   =   264.50000 down          =   264.50000
              total=   529.00000 ideal(neutral)=   529.00000
<DFT>  Total Spin Moment (muB) =  0.000000000000
<DFT>  Mixing_weight= 0.030000000000
<DFT>  Uele   = -254.046423699994  dUele     =   0.000974153166
<DFT>  NormRD =    0.000022040885  Criterion =   0.000000010000

******************* MD= 1  SCF=27 *******************
<Poisson>  Poisson's equation using FFT...
<Set_Hamiltonian>  Hamiltonian matrix for VNA+dVH+Vxc...
<Band>  Solving the eigenvalue problem...
 KGrids1:  -0.43750  -0.31250  -0.18750  -0.06250   0.06250   0.18750   0.31250   0.43750 
 KGrids2:  -0.43750  -0.31250  -0.18750  -0.06250   0.06250   0.18750   0.31250   0.43750 
 KGrids3:   0.00000 
<Band_DFT>  Eigen, time=13.922857
<Band_DFT>  DM, time=0.000001
    1    C  MulP   2.0002  2.0002 sum   4.0003
    2    C  MulP   2.0003  2.0003 sum   4.0005
    3    C  MulP   2.0003  2.0003 sum   4.0006
    4    C  MulP   2.0002  2.0002 sum   4.0004
    5    C  MulP   2.0004  2.0004 sum   4.0008
    6    C  MulP   2.0004  2.0004 sum   4.0008
    7    C  MulP   2.0003  2.0003 sum   4.0006
    8    C  MulP   2.0005  2.0005 sum   4.0011
    9    C  MulP   2.0005  2.0005 sum   4.0009
   10    C  MulP   2.0003  2.0003 sum   4.0006
   11    C  MulP   2.0008  2.0008 sum   4.0015
   12    C  MulP   2.0004  2.0004 sum   4.0008
   13    C  MulP   2.0004  2.0004 sum   4.0008
   14    C  MulP   2.0004  2.0004 sum   4.0008
   15    C  MulP   2.0006  2.0006 sum   4.0013
   16    C  MulP   2.0003  2.0003 sum   4.0007
   17    C  MulP   2.0003  2.0003 sum   4.0007
   18    C  MulP   2.0002  2.0002 sum   4.0004
   19    C  MulP   2.0001  2.0001 sum   4.0003
   20    C  MulP   1.9994  1.9994 sum   3.9989
     ..........
     ......

 Sum of MulP: up   =   264.50000 down          =   264.50000
              total=   529.00000 ideal(neutral)=   529.00000
<DFT>  Total Spin Moment (muB) =  0.000000000000
<DFT>  Mixing_weight= 0.030000000000
<DFT>  Uele   = -254.046812506032  dUele     =   0.000388806037
<DFT>  NormRD =    0.000010660127  Criterion =   0.000000010000

******************* MD= 1  SCF=28 *******************
<Poisson>  Poisson's equation using FFT...
<Set_Hamiltonian>  Hamiltonian matrix for VNA+dVH+Vxc...
<Band>  Solving the eigenvalue problem...
 KGrids1:  -0.43750  -0.31250  -0.18750  -0.06250   0.06250   0.18750   0.31250   0.43750 
 KGrids2:  -0.43750  -0.31250  -0.18750  -0.06250   0.06250   0.18750   0.31250   0.43750 
 KGrids3:   0.00000 
<Band_DFT>  Eigen, time=13.895975
<Band_DFT>  DM, time=0.000001
    1    C  MulP   2.0002  2.0002 sum   4.0003
    2    C  MulP   2.0003  2.0003 sum   4.0005
    3    C  MulP   2.0003  2.0003 sum   4.0006
    4    C  MulP   2.0002  2.0002 sum   4.0004
    5    C  MulP   2.0004  2.0004 sum   4.0008
    6    C  MulP   2.0004  2.0004 sum   4.0008
    7    C  MulP   2.0003  2.0003 sum   4.0006
    8    C  MulP   2.0005  2.0005 sum   4.0011
    9    C  MulP   2.0005  2.0005 sum   4.0009
   10    C  MulP   2.0003  2.0003 sum   4.0006
   11    C  MulP   2.0008  2.0008 sum   4.0015
   12    C  MulP   2.0004  2.0004 sum   4.0008
   13    C  MulP   2.0004  2.0004 sum   4.0008
   14    C  MulP   2.0004  2.0004 sum   4.0008
   15    C  MulP   2.0006  2.0006 sum   4.0013
   16    C  MulP   2.0003  2.0003 sum   4.0007
   17    C  MulP   2.0003  2.0003 sum   4.0007
   18    C  MulP   2.0002  2.0002 sum   4.0004
   19    C  MulP   2.0001  2.0001 sum   4.0003
   20    C  MulP   1.9994  1.9994 sum   3.9989
     ..........
     ......

 Sum of MulP: up   =   264.50000 down          =   264.50000
              total=   529.00000 ideal(neutral)=   529.00000
<DFT>  Total Spin Moment (muB) =  0.000000000000
<DFT>  Mixing_weight= 0.030000000000
<DFT>  Uele   = -254.047022792222  dUele     =   0.000210286190
<DFT>  NormRD =    0.000005555220  Criterion =   0.000000010000

******************* MD= 1  SCF=29 *******************
<Poisson>  Poisson's equation using FFT...
<Set_Hamiltonian>  Hamiltonian matrix for VNA+dVH+Vxc...
<Band>  Solving the eigenvalue problem...
 KGrids1:  -0.43750  -0.31250  -0.18750  -0.06250   0.06250   0.18750   0.31250   0.43750 
 KGrids2:  -0.43750  -0.31250  -0.18750  -0.06250   0.06250   0.18750   0.31250   0.43750 
 KGrids3:   0.00000 
<Band_DFT>  Eigen, time=13.951424
<Band_DFT>  DM, time=0.000000
    1    C  MulP   2.0002  2.0002 sum   4.0003
    2    C  MulP   2.0003  2.0003 sum   4.0005
    3    C  MulP   2.0003  2.0003 sum   4.0006
    4    C  MulP   2.0002  2.0002 sum   4.0004
    5    C  MulP   2.0004  2.0004 sum   4.0008
    6    C  MulP   2.0004  2.0004 sum   4.0008
    7    C  MulP   2.0003  2.0003 sum   4.0006
    8    C  MulP   2.0005  2.0005 sum   4.0011
    9    C  MulP   2.0005  2.0005 sum   4.0009
   10    C  MulP   2.0003  2.0003 sum   4.0006
   11    C  MulP   2.0008  2.0008 sum   4.0015
   12    C  MulP   2.0004  2.0004 sum   4.0008
   13    C  MulP   2.0004  2.0004 sum   4.0008
   14    C  MulP   2.0004  2.0004 sum   4.0008
   15    C  MulP   2.0006  2.0006 sum   4.0013
   16    C  MulP   2.0003  2.0003 sum   4.0007
   17    C  MulP   2.0003  2.0003 sum   4.0007
   18    C  MulP   2.0002  2.0002 sum   4.0004
   19    C  MulP   2.0001  2.0001 sum   4.0003
   20    C  MulP   1.9994  1.9994 sum   3.9989
     ..........
     ......

 Sum of MulP: up   =   264.50000 down          =   264.50000
              total=   529.00000 ideal(neutral)=   529.00000
<DFT>  Total Spin Moment (muB) =  0.000000000000
<DFT>  Mixing_weight= 0.030000000000
<DFT>  Uele   = -254.047151717231  dUele     =   0.000128925009
<DFT>  NormRD =    0.000003220133  Criterion =   0.000000010000

******************* MD= 1  SCF=30 *******************
<Poisson>  Poisson's equation using FFT...
<Set_Hamiltonian>  Hamiltonian matrix for VNA+dVH+Vxc...
<Band>  Solving the eigenvalue problem...
 KGrids1:  -0.43750  -0.31250  -0.18750  -0.06250   0.06250   0.18750   0.31250   0.43750 
 KGrids2:  -0.43750  -0.31250  -0.18750  -0.06250   0.06250   0.18750   0.31250   0.43750 
 KGrids3:   0.00000 
<Band_DFT>  Eigen, time=13.959439
<Band_DFT>  DM, time=0.000000
    1    C  MulP   2.0002  2.0002 sum   4.0003
    2    C  MulP   2.0003  2.0003 sum   4.0005
    3    C  MulP   2.0003  2.0003 sum   4.0006
    4    C  MulP   2.0002  2.0002 sum   4.0004
    5    C  MulP   2.0004  2.0004 sum   4.0008
    6    C  MulP   2.0004  2.0004 sum   4.0008
    7    C  MulP   2.0003  2.0003 sum   4.0006
    8    C  MulP   2.0005  2.0005 sum   4.0011
    9    C  MulP   2.0005  2.0005 sum   4.0009
   10    C  MulP   2.0003  2.0003 sum   4.0006
   11    C  MulP   2.0008  2.0008 sum   4.0015
   12    C  MulP   2.0004  2.0004 sum   4.0008
   13    C  MulP   2.0004  2.0004 sum   4.0008
   14    C  MulP   2.0004  2.0004 sum   4.0008
   15    C  MulP   2.0006  2.0006 sum   4.0013
   16    C  MulP   2.0003  2.0003 sum   4.0007
   17    C  MulP   2.0003  2.0003 sum   4.0007
   18    C  MulP   2.0002  2.0002 sum   4.0004
   19    C  MulP   2.0001  2.0001 sum   4.0003
   20    C  MulP   1.9994  1.9994 sum   3.9989
     ..........
     ......

 Sum of MulP: up   =   264.50000 down          =   264.50000
              total=   529.00000 ideal(neutral)=   529.00000
<DFT>  Total Spin Moment (muB) =  0.000000000000
<DFT>  Mixing_weight= 0.030000000000
<DFT>  Uele   = -254.047226675892  dUele     =   0.000074958660
<DFT>  NormRD =    0.000001806977  Criterion =   0.000000010000

******************* MD= 1  SCF=31 *******************
<Poisson>  Poisson's equation using FFT...
<Set_Hamiltonian>  Hamiltonian matrix for VNA+dVH+Vxc...
<Band>  Solving the eigenvalue problem...
 KGrids1:  -0.43750  -0.31250  -0.18750  -0.06250   0.06250   0.18750   0.31250   0.43750 
 KGrids2:  -0.43750  -0.31250  -0.18750  -0.06250   0.06250   0.18750   0.31250   0.43750 
 KGrids3:   0.00000 
<Band_DFT>  Eigen, time=13.951505
<Band_DFT>  DM, time=0.000001
    1    C  MulP   2.0002  2.0002 sum   4.0003
    2    C  MulP   2.0003  2.0003 sum   4.0005
    3    C  MulP   2.0003  2.0003 sum   4.0006
    4    C  MulP   2.0002  2.0002 sum   4.0004
    5    C  MulP   2.0004  2.0004 sum   4.0008
    6    C  MulP   2.0004  2.0004 sum   4.0008
    7    C  MulP   2.0003  2.0003 sum   4.0006
    8    C  MulP   2.0005  2.0005 sum   4.0011
    9    C  MulP   2.0005  2.0005 sum   4.0009
   10    C  MulP   2.0003  2.0003 sum   4.0006
   11    C  MulP   2.0008  2.0008 sum   4.0015
   12    C  MulP   2.0004  2.0004 sum   4.0008
   13    C  MulP   2.0004  2.0004 sum   4.0008
   14    C  MulP   2.0004  2.0004 sum   4.0008
   15    C  MulP   2.0006  2.0006 sum   4.0013
   16    C  MulP   2.0003  2.0003 sum   4.0007
   17    C  MulP   2.0003  2.0003 sum   4.0007
   18    C  MulP   2.0002  2.0002 sum   4.0004
   19    C  MulP   2.0001  2.0001 sum   4.0003
   20    C  MulP   1.9994  1.9994 sum   3.9989
     ..........
     ......

 Sum of MulP: up   =   264.50000 down          =   264.50000
              total=   529.00000 ideal(neutral)=   529.00000
<DFT>  Total Spin Moment (muB) =  0.000000000000
<DFT>  Mixing_weight= 0.030000000000
<DFT>  Uele   = -254.047273052429  dUele     =   0.000046376537
<DFT>  NormRD =    0.000001003651  Criterion =   0.000000010000

******************* MD= 1  SCF=32 *******************
<Poisson>  Poisson's equation using FFT...
<Set_Hamiltonian>  Hamiltonian matrix for VNA+dVH+Vxc...
<Band>  Solving the eigenvalue problem...
 KGrids1:  -0.43750  -0.31250  -0.18750  -0.06250   0.06250   0.18750   0.31250   0.43750 
 KGrids2:  -0.43750  -0.31250  -0.18750  -0.06250   0.06250   0.18750   0.31250   0.43750 
 KGrids3:   0.00000 
<Band_DFT>  Eigen, time=13.966104
<Band_DFT>  DM, time=0.000000
    1    C  MulP   2.0002  2.0002 sum   4.0003
    2    C  MulP   2.0003  2.0003 sum   4.0005
    3    C  MulP   2.0003  2.0003 sum   4.0006
    4    C  MulP   2.0002  2.0002 sum   4.0004
    5    C  MulP   2.0004  2.0004 sum   4.0008
    6    C  MulP   2.0004  2.0004 sum   4.0008
    7    C  MulP   2.0003  2.0003 sum   4.0006
    8    C  MulP   2.0005  2.0005 sum   4.0011
    9    C  MulP   2.0005  2.0005 sum   4.0009
   10    C  MulP   2.0003  2.0003 sum   4.0006
   11    C  MulP   2.0008  2.0008 sum   4.0015
   12    C  MulP   2.0004  2.0004 sum   4.0008
   13    C  MulP   2.0004  2.0004 sum   4.0008
   14    C  MulP   2.0004  2.0004 sum   4.0008
   15    C  MulP   2.0006  2.0006 sum   4.0013
   16    C  MulP   2.0003  2.0003 sum   4.0007
   17    C  MulP   2.0003  2.0003 sum   4.0007
   18    C  MulP   2.0002  2.0002 sum   4.0004
   19    C  MulP   2.0001  2.0001 sum   4.0003
   20    C  MulP   1.9994  1.9994 sum   3.9989
     ..........
     ......

 Sum of MulP: up   =   264.50000 down          =   264.50000
              total=   529.00000 ideal(neutral)=   529.00000
<DFT>  Total Spin Moment (muB) =  0.000000000000
<DFT>  Mixing_weight= 0.030000000000
<DFT>  Uele   = -254.047309823139  dUele     =   0.000036770710
<DFT>  NormRD =    0.000000448664  Criterion =   0.000000010000

******************* MD= 1  SCF=33 *******************
<Poisson>  Poisson's equation using FFT...
<Set_Hamiltonian>  Hamiltonian matrix for VNA+dVH+Vxc...
<Band>  Solving the eigenvalue problem...
 KGrids1:  -0.43750  -0.31250  -0.18750  -0.06250   0.06250   0.18750   0.31250   0.43750 
 KGrids2:  -0.43750  -0.31250  -0.18750  -0.06250   0.06250   0.18750   0.31250   0.43750 
 KGrids3:   0.00000 
<Band_DFT>  Eigen, time=13.941977
<Band_DFT>  DM, time=0.000000
    1    C  MulP   2.0002  2.0002 sum   4.0003
    2    C  MulP   2.0003  2.0003 sum   4.0005
    3    C  MulP   2.0003  2.0003 sum   4.0006
    4    C  MulP   2.0002  2.0002 sum   4.0004
    5    C  MulP   2.0004  2.0004 sum   4.0008
    6    C  MulP   2.0004  2.0004 sum   4.0008
    7    C  MulP   2.0003  2.0003 sum   4.0006
    8    C  MulP   2.0005  2.0005 sum   4.0011
    9    C  MulP   2.0005  2.0005 sum   4.0009
   10    C  MulP   2.0003  2.0003 sum   4.0006
   11    C  MulP   2.0008  2.0008 sum   4.0015
   12    C  MulP   2.0004  2.0004 sum   4.0008
   13    C  MulP   2.0004  2.0004 sum   4.0008
   14    C  MulP   2.0004  2.0004 sum   4.0008
   15    C  MulP   2.0006  2.0006 sum   4.0013
   16    C  MulP   2.0003  2.0003 sum   4.0007
   17    C  MulP   2.0003  2.0003 sum   4.0007
   18    C  MulP   2.0002  2.0002 sum   4.0004
   19    C  MulP   2.0001  2.0001 sum   4.0003
   20    C  MulP   1.9994  1.9994 sum   3.9989
     ..........
     ......

 Sum of MulP: up   =   264.50000 down          =   264.50000
              total=   529.00000 ideal(neutral)=   529.00000
<DFT>  Total Spin Moment (muB) =  0.000000000000
<DFT>  Mixing_weight= 0.030000000000
<DFT>  Uele   = -254.047325246116  dUele     =   0.000015422977
<DFT>  NormRD =    0.000000218744  Criterion =   0.000000010000

******************* MD= 1  SCF=34 *******************
<Poisson>  Poisson's equation using FFT...
<Set_Hamiltonian>  Hamiltonian matrix for VNA+dVH+Vxc...
<Band>  Solving the eigenvalue problem...
 KGrids1:  -0.43750  -0.31250  -0.18750  -0.06250   0.06250   0.18750   0.31250   0.43750 
 KGrids2:  -0.43750  -0.31250  -0.18750  -0.06250   0.06250   0.18750   0.31250   0.43750 
 KGrids3:   0.00000 
<Band_DFT>  Eigen, time=13.917422
<Band_DFT>  DM, time=0.000000
    1    C  MulP   2.0002  2.0002 sum   4.0003
    2    C  MulP   2.0003  2.0003 sum   4.0005
    3    C  MulP   2.0003  2.0003 sum   4.0006
    4    C  MulP   2.0002  2.0002 sum   4.0004
    5    C  MulP   2.0004  2.0004 sum   4.0008
    6    C  MulP   2.0004  2.0004 sum   4.0008
    7    C  MulP   2.0003  2.0003 sum   4.0006
    8    C  MulP   2.0005  2.0005 sum   4.0011
    9    C  MulP   2.0005  2.0005 sum   4.0009
   10    C  MulP   2.0003  2.0003 sum   4.0006
   11    C  MulP   2.0008  2.0008 sum   4.0015
   12    C  MulP   2.0004  2.0004 sum   4.0008
   13    C  MulP   2.0004  2.0004 sum   4.0008
   14    C  MulP   2.0004  2.0004 sum   4.0008
   15    C  MulP   2.0006  2.0006 sum   4.0013
   16    C  MulP   2.0003  2.0003 sum   4.0007
   17    C  MulP   2.0003  2.0003 sum   4.0007
   18    C  MulP   2.0002  2.0002 sum   4.0004
   19    C  MulP   2.0001  2.0001 sum   4.0003
   20    C  MulP   1.9994  1.9994 sum   3.9989
     ..........
     ......

 Sum of MulP: up   =   264.50000 down          =   264.50000
              total=   529.00000 ideal(neutral)=   529.00000
<DFT>  Total Spin Moment (muB) =  0.000000000000
<DFT>  Mixing_weight= 0.030000000000
<DFT>  Uele   = -254.047335426245  dUele     =   0.000010180129
<DFT>  NormRD =    0.000000080314  Criterion =   0.000000010000

******************* MD= 1  SCF=35 *******************
<Poisson>  Poisson's equation using FFT...
<Set_Hamiltonian>  Hamiltonian matrix for VNA+dVH+Vxc...
<Band>  Solving the eigenvalue problem...
 KGrids1:  -0.43750  -0.31250  -0.18750  -0.06250   0.06250   0.18750   0.31250   0.43750 
 KGrids2:  -0.43750  -0.31250  -0.18750  -0.06250   0.06250   0.18750   0.31250   0.43750 
 KGrids3:   0.00000 
<Band_DFT>  Eigen, time=13.950111
<Band_DFT>  DM, time=0.000001
    1    C  MulP   2.0002  2.0002 sum   4.0003
    2    C  MulP   2.0003  2.0003 sum   4.0005
    3    C  MulP   2.0003  2.0003 sum   4.0006
    4    C  MulP   2.0002  2.0002 sum   4.0004
    5    C  MulP   2.0004  2.0004 sum   4.0008
    6    C  MulP   2.0004  2.0004 sum   4.0008
    7    C  MulP   2.0003  2.0003 sum   4.0006
    8    C  MulP   2.0005  2.0005 sum   4.0011
    9    C  MulP   2.0005  2.0005 sum   4.0009
   10    C  MulP   2.0003  2.0003 sum   4.0006
   11    C  MulP   2.0008  2.0008 sum   4.0015
   12    C  MulP   2.0004  2.0004 sum   4.0008
   13    C  MulP   2.0004  2.0004 sum   4.0008
   14    C  MulP   2.0004  2.0004 sum   4.0008
   15    C  MulP   2.0006  2.0006 sum   4.0013
   16    C  MulP   2.0003  2.0003 sum   4.0007
   17    C  MulP   2.0003  2.0003 sum   4.0007
   18    C  MulP   2.0002  2.0002 sum   4.0004
   19    C  MulP   2.0001  2.0001 sum   4.0003
   20    C  MulP   1.9994  1.9994 sum   3.9989
     ..........
     ......

 Sum of MulP: up   =   264.50000 down          =   264.50000
              total=   529.00000 ideal(neutral)=   529.00000
<DFT>  Total Spin Moment (muB) =  0.000000000000
<DFT>  Mixing_weight= 0.030000000000
<DFT>  Uele   = -254.047339295603  dUele     =   0.000003869357
<DFT>  NormRD =    0.000000019325  Criterion =   0.000000010000

******************* MD= 1  SCF=36 *******************
<Poisson>  Poisson's equation using FFT...
<Set_Hamiltonian>  Hamiltonian matrix for VNA+dVH+Vxc...
<Band>  Solving the eigenvalue problem...
 KGrids1:  -0.43750  -0.31250  -0.18750  -0.06250   0.06250   0.18750   0.31250   0.43750 
 KGrids2:  -0.43750  -0.31250  -0.18750  -0.06250   0.06250   0.18750   0.31250   0.43750 
 KGrids3:   0.00000 
<Band_DFT>  Eigen, time=13.909270
<Band_DFT>  DM, time=0.000001
    1    C  MulP   2.0002  2.0002 sum   4.0003
    2    C  MulP   2.0003  2.0003 sum   4.0005
    3    C  MulP   2.0003  2.0003 sum   4.0006
    4    C  MulP   2.0002  2.0002 sum   4.0004
    5    C  MulP   2.0004  2.0004 sum   4.0008
    6    C  MulP   2.0004  2.0004 sum   4.0008
    7    C  MulP   2.0003  2.0003 sum   4.0006
    8    C  MulP   2.0005  2.0005 sum   4.0011
    9    C  MulP   2.0005  2.0005 sum   4.0009
   10    C  MulP   2.0003  2.0003 sum   4.0006
   11    C  MulP   2.0008  2.0008 sum   4.0015
   12    C  MulP   2.0004  2.0004 sum   4.0008
   13    C  MulP   2.0004  2.0004 sum   4.0008
   14    C  MulP   2.0004  2.0004 sum   4.0008
   15    C  MulP   2.0006  2.0006 sum   4.0013
   16    C  MulP   2.0003  2.0003 sum   4.0007
   17    C  MulP   2.0003  2.0003 sum   4.0007
   18    C  MulP   2.0002  2.0002 sum   4.0004
   19    C  MulP   2.0001  2.0001 sum   4.0003
   20    C  MulP   1.9994  1.9994 sum   3.9989
     ..........
     ......

 Sum of MulP: up   =   264.50000 down          =   264.50000
              total=   529.00000 ideal(neutral)=   529.00000
<DFT>  Total Spin Moment (muB) =  0.000000000000
<DFT>  Mixing_weight= 0.030000000000
<DFT>  Uele   = -254.047340033546  dUele     =   0.000000737943
<DFT>  NormRD =    0.000000009510  Criterion =   0.000000010000

******************* MD= 1  SCF=37 *******************
<Poisson>  Poisson's equation using FFT...
<Set_Hamiltonian>  Hamiltonian matrix for VNA+dVH+Vxc...
<Band>  Solving the eigenvalue problem...
 KGrids1:  -0.43750  -0.31250  -0.18750  -0.06250   0.06250   0.18750   0.31250   0.43750 
 KGrids2:  -0.43750  -0.31250  -0.18750  -0.06250   0.06250   0.18750   0.31250   0.43750 
 KGrids3:   0.00000 
<Band_DFT>  Eigen, time=13.969577
<Band_DFT>  DM, time=0.000000
    1    C  MulP   2.0002  2.0002 sum   4.0003
    2    C  MulP   2.0003  2.0003 sum   4.0005
    3    C  MulP   2.0003  2.0003 sum   4.0006
    4    C  MulP   2.0002  2.0002 sum   4.0004
    5    C  MulP   2.0004  2.0004 sum   4.0008
    6    C  MulP   2.0004  2.0004 sum   4.0008
    7    C  MulP   2.0003  2.0003 sum   4.0006
    8    C  MulP   2.0005  2.0005 sum   4.0011
    9    C  MulP   2.0005  2.0005 sum   4.0009
   10    C  MulP   2.0003  2.0003 sum   4.0006
   11    C  MulP   2.0008  2.0008 sum   4.0015
   12    C  MulP   2.0004  2.0004 sum   4.0008
   13    C  MulP   2.0004  2.0004 sum   4.0008
   14    C  MulP   2.0004  2.0004 sum   4.0008
   15    C  MulP   2.0006  2.0006 sum   4.0013
   16    C  MulP   2.0003  2.0003 sum   4.0007
   17    C  MulP   2.0003  2.0003 sum   4.0007
   18    C  MulP   2.0002  2.0002 sum   4.0004
   19    C  MulP   2.0001  2.0001 sum   4.0003
   20    C  MulP   1.9994  1.9994 sum   3.9989
     ..........
     ......

 Sum of MulP: up   =   264.50000 down          =   264.50000
              total=   529.00000 ideal(neutral)=   529.00000
<DFT>  Total Spin Moment (muB) =  0.000000000000
<DFT>  Mixing_weight= 0.030000000000
<DFT>  Uele   = -254.047340243971  dUele     =   0.000000210425
<DFT>  NormRD =    0.000000002362  Criterion =   0.000000010000

******************* MD= 1  SCF=38 *******************
<Poisson>  Poisson's equation using FFT...
<Set_Hamiltonian>  Hamiltonian matrix for VNA+dVH+Vxc...
<Band>  Solving the eigenvalue problem...
 KGrids1:  -0.43750  -0.31250  -0.18750  -0.06250   0.06250   0.18750   0.31250   0.43750 
 KGrids2:  -0.43750  -0.31250  -0.18750  -0.06250   0.06250   0.18750   0.31250   0.43750 
 KGrids3:   0.00000 
<Band_DFT>  Eigen, time=13.933832
<Band_DFT>  DM, time=0.000000
    1    C  MulP   2.0002  2.0002 sum   4.0003
    2    C  MulP   2.0003  2.0003 sum   4.0005
    3    C  MulP   2.0003  2.0003 sum   4.0006
    4    C  MulP   2.0002  2.0002 sum   4.0004
    5    C  MulP   2.0004  2.0004 sum   4.0008
    6    C  MulP   2.0004  2.0004 sum   4.0008
    7    C  MulP   2.0003  2.0003 sum   4.0006
    8    C  MulP   2.0005  2.0005 sum   4.0011
    9    C  MulP   2.0005  2.0005 sum   4.0009
   10    C  MulP   2.0003  2.0003 sum   4.0006
   11    C  MulP   2.0008  2.0008 sum   4.0015
   12    C  MulP   2.0004  2.0004 sum   4.0008
   13    C  MulP   2.0004  2.0004 sum   4.0008
   14    C  MulP   2.0004  2.0004 sum   4.0008
[...]
<Poisson>  Poisson's equation using FFT...
<Set_Hamiltonian>  Hamiltonian matrix for VNA+dVH+Vxc...
<Band>  Solving the eigenvalue problem...
 KGrids1:  -0.43750  -0.31250  -0.18750  -0.06250   0.06250   0.18750   0.31250   0.43750 
 KGrids2:  -0.43750  -0.31250  -0.18750  -0.06250   0.06250   0.18750   0.31250   0.43750 
 KGrids3:   0.00000 
<Band_DFT>  Eigen, time=14.160408
<Band_DFT>  DM, time=0.000000
    1    C  MulP   1.9997  1.9997 sum   3.9995
    2    C  MulP   1.9997  1.9997 sum   3.9994
    3    C  MulP   2.0000  2.0000 sum   4.0001
    4    C  MulP   1.9997  1.9997 sum   3.9994
    5    C  MulP   1.9998  1.9998 sum   3.9995
    6    C  MulP   1.9999  1.9999 sum   3.9998
    7    C  MulP   1.9997  1.9997 sum   3.9995
    8    C  MulP   1.9999  1.9999 sum   3.9997
    9    C  MulP   1.9999  1.9999 sum   3.9997
   10    C  MulP   1.9996  1.9996 sum   3.9992
   11    C  MulP   1.9999  1.9999 sum   3.9999
   12    C  MulP   2.0000  2.0000 sum   4.0000
   13    C  MulP   1.9999  1.9999 sum   3.9997
   14    C  MulP   1.9999  1.9999 sum   3.9997
   15    C  MulP   1.9999  1.9999 sum   3.9998
   16    C  MulP   1.9998  1.9998 sum   3.9996
   17    C  MulP   1.9996  1.9996 sum   3.9993
   18    C  MulP   1.9994  1.9994 sum   3.9987
   19    C  MulP   1.9976  1.9976 sum   3.9952
   20    C  MulP   1.9969  1.9969 sum   3.9938
     ..........
     ......

 Sum of MulP: up   =   264.50000 down          =   264.50000
              total=   529.00000 ideal(neutral)=   529.00000
<DFT>  Total Spin Moment (muB) =  0.000000000000
<DFT>  Mixing_weight= 0.030000000000
<DFT>  Uele   = -254.394358845879  dUele     =   0.000000002599
<DFT>  NormRD =    0.000000127957  Criterion =   0.000000010000
<MD=63>  Force calculation
  Force calculation #1
  Force calculation #2
  Force calculation #3
  Force calculation #4
  Force calculation #5
<MD=63>  Total Energy
  Force calculation #6
  Force calculation #7

*******************************************************
                  Dipole moment (Debye)                 
*******************************************************

 Absolute D       87.80351072

                      Dx                Dy                Dz
 Total             66.13040245      -57.75979880        0.17891409
 Core           12448.01839291    21767.22121337    26851.08533155
 Electron      -12381.88799046   -21824.98101217   -26850.90641746
 Back ground       -0.00000000       -0.00000000       -0.00000000

*******************************************************
                Total Energy (Hartree) at MD =63        
*******************************************************

  Uele  =    -254.394358845879

  Ukin  =     561.868603110596
  UH0   =   -7718.202526704605
  UH1   =       1.900640092420
  Una   =    -406.952616705662
  Unl   =     -62.737564113438
  Uxc0  =    -129.010859540476
  Uxc1  =    -129.010859540476
  Ucore =    7095.324868094809
  Uhub  =       0.000000000000
  Ucs   =       0.000000000000
  Uzs   =       0.000000000000
  Uzo   =       0.000000000000
  Uef   =       0.000000000000
  UvdW  =       0.000000000000
  Uch   =       0.000000000000
  Utot  =    -786.820315306833

  UpV   =       0.000000000000
  Enpy  =    -786.820315306833
  Note:

  Uele:   band energy
  Ukin:   kinetic energy
  UH0:    electric part of screened Coulomb energy
  UH1:    difference electron-electron Coulomb energy
  Una:    neutral atom potential energy
  Unl:    non-local potential energy
  Uxc0:   exchange-correlation energy for alpha spin
  Uxc1:   exchange-correlation energy for beta spin
  Ucore:  core-core Coulomb energy
  Uhub:   LDA+U energy
  Ucs:    constraint energy for spin orientation
  Uzs:    Zeeman term for spin magnetic moment
  Uzo:    Zeeman term for orbital magnetic moment
  Uef:    electric energy by electric field
  UvdW:   semi-empirical vdW energy 
  Uch:    penalty term to create a core hole
  UpV:    pressure times volume
  Enpy:   Enthalpy = Utot + UpV
  (see also PRB 72, 045121(2005) for the energy contributions)


*******************************************************
           Computational times (s) at MD =63            
*******************************************************

  DFT in total      =  245.17173

  Set_OLP_Kin       =    1.11784
  Set_Nonlocal      =    2.82393
  Set_ProExpn_VNA   =    4.69413
  Set_Hamiltonian   =   13.55009
  Poisson           =    0.16412
  diagonalization   =  209.39234
  Mixing_DM         =    1.43430
  Force             =    3.91533
  Total_Energy      =    1.30249
  Set_Aden_Grid     =    0.24387
  Set_Orbitals_Grid =    0.51949
  Set_Density_Grid  =    5.26889
  RestartFileDFT    =    0.33919
  Mulliken_Charge   =    0.01173
  FFT(2D)_Density   =    0.18495

The SCF was achieved at MD=  63

*******************************************************
             MD or geometry opt. at MD =63              
*******************************************************


The geometry optimization was achieved.
<RF>  |Maximum force| (Hartree/Bohr) = 0.000076073425
<RF>  Criterion       (Hartree/Bohr) = 0.000100000000

     atom=   1, XYZ(ang) Fxyz(a.u.)=   0.0067    1.4184   10.4042    -0.0000    0.0000    0.0000
     atom=   2, XYZ(ang) Fxyz(a.u.)=  -1.2252    3.5567   10.4345     0.0000    0.0000   -0.0000
     atom=   3, XYZ(ang) Fxyz(a.u.)=  -2.4597    5.6931   10.4509     0.0000    0.0000   -0.0000
     atom=   4, XYZ(ang) Fxyz(a.u.)=  -3.6925    7.8304   10.4259     0.0000    0.0000    0.0000
     atom=   5, XYZ(ang) Fxyz(a.u.)=  -4.9284    9.9666   10.3921     0.0000   -0.0000   -0.0000
     atom=   6, XYZ(ang) Fxyz(a.u.)=  -6.1620   12.1025   10.3683     0.0000    0.0000    0.0000
     atom=   7, XYZ(ang) Fxyz(a.u.)=  -7.3953   14.2396   10.3619     0.0000    0.0000   -0.0000
     atom=   8, XYZ(ang) Fxyz(a.u.)=  -8.6295   16.3761   10.3761     0.0000    0.0000    0.0000
     atom=   9, XYZ(ang) Fxyz(a.u.)=   2.4741    1.4183   10.3918    -0.0000    0.0000    0.0000
     atom=  10, XYZ(ang) Fxyz(a.u.)=   1.2406    3.5558   10.4400    -0.0000    0.0000   -0.0000
     atom=  11, XYZ(ang) Fxyz(a.u.)=   0.0095    5.6915   10.5054    -0.0000   -0.0000   -0.0000
     atom=  12, XYZ(ang) Fxyz(a.u.)=  -1.2265    7.8321   10.5112    -0.0000   -0.0000    0.0000
     atom=  13, XYZ(ang) Fxyz(a.u.)=  -2.4607    9.9665   10.4483     0.0000   -0.0000    0.0001
     atom=  14, XYZ(ang) Fxyz(a.u.)=  -3.6947   12.1035   10.3970     0.0000   -0.0000   -0.0000
     atom=  15, XYZ(ang) Fxyz(a.u.)=  -4.9288   14.2397   10.3681     0.0000    0.0000    0.0000
     atom=  16, XYZ(ang) Fxyz(a.u.)=  -6.1620   16.3754   10.3662     0.0000   -0.0000   -0.0000
     atom=  17, XYZ(ang) Fxyz(a.u.)=   4.9403    1.4182   10.3962     0.0000   -0.0000   -0.0000
     atom=  18, XYZ(ang) Fxyz(a.u.)=   3.7073    3.5523   10.4452     0.0000   -0.0000    0.0000
     atom=  19, XYZ(ang) Fxyz(a.u.)=   2.4765    5.6901   10.5336    -0.0000   -0.0000    0.0000
     atom=  20, XYZ(ang) Fxyz(a.u.)=   1.2362    7.8260   10.6644    -0.0000   -0.0000    0.0000
     atom=  21, XYZ(ang) Fxyz(a.u.)=   0.0048    9.9694   10.5658    -0.0000    0.0000    0.0001
     atom=  22, XYZ(ang) Fxyz(a.u.)=  -1.2303   12.1046   10.4724    -0.0000    0.0000    0.0000
     atom=  23, XYZ(ang) Fxyz(a.u.)=  -2.4617   14.2394   10.4103     0.0000    0.0000    0.0000
     atom=  24, XYZ(ang) Fxyz(a.u.)=  -3.6946   16.3761   10.3858    -0.0000    0.0000    0.0000
     atom=  25, XYZ(ang) Fxyz(a.u.)=   7.4077    1.4183   10.4156     0.0000   -0.0000    0.0000
     atom=  26, XYZ(ang) Fxyz(a.u.)=   6.1740    3.5552   10.4496     0.0000   -0.0000    0.0000
     atom=  27, XYZ(ang) Fxyz(a.u.)=   4.9381    5.6888   10.5424     0.0000   -0.0000    0.0000
     atom=  28, XYZ(ang) Fxyz(a.u.)=   3.7064    7.7959   10.7717     0.0000    0.0000    0.0000
     atom=  29, XYZ(ang) Fxyz(a.u.)=   2.4445    9.9812   10.8103    -0.0000    0.0000   -0.0000
     atom=  30, XYZ(ang) Fxyz(a.u.)=   1.2357   12.1023   10.5817    -0.0000    0.0000    0.0000
     atom=  31, XYZ(ang) Fxyz(a.u.)=   0.0058   14.2393   10.4770    -0.0000    0.0000    0.0000
     atom=  32, XYZ(ang) Fxyz(a.u.)=  -1.2281   16.3761   10.4254    -0.0000    0.0000    0.0000
     atom=  33, XYZ(ang) Fxyz(a.u.)=   9.8753    1.4189   10.4345     0.0000    0.0000    0.0000
     atom=  34, XYZ(ang) Fxyz(a.u.)=   8.6400    3.5566   10.4467    -0.0000    0.0000    0.0000
     atom=  35, XYZ(ang) Fxyz(a.u.)=   7.4053    5.6914   10.5189     0.0000    0.0000    0.0000
     atom=  36, XYZ(ang) Fxyz(a.u.)=   6.1776    7.8265   10.6745     0.0000    0.0000   -0.0000
     atom=  37, XYZ(ang) Fxyz(a.u.)=   4.9668    9.9797   10.8017     0.0000    0.0000   -0.0000
     atom=  38, XYZ(ang) Fxyz(a.u.)=   3.7079   12.1065   10.6918     0.0000    0.0000    0.0000
     atom=  39, XYZ(ang) Fxyz(a.u.)=   2.4714   14.2376   10.5483     0.0000   -0.0000    0.0000
     atom=  40, XYZ(ang) Fxyz(a.u.)=   1.2398   16.3742   10.4671    -0.0000    0.0000   -0.0000
     atom=  41, XYZ(ang) Fxyz(a.u.)=  12.3422    1.4182   10.4455    -0.0000    0.0000   -0.0000
     atom=  42, XYZ(ang) Fxyz(a.u.)=  11.1081    3.5556   10.4338     0.0000    0.0000   -0.0000
     atom=  43, XYZ(ang) Fxyz(a.u.)=   9.8745    5.6930   10.4602     0.0000    0.0000    0.0000
     atom=  44, XYZ(ang) Fxyz(a.u.)=   8.6409    7.8319   10.5169    -0.0000    0.0000    0.0000
     atom=  45, XYZ(ang) Fxyz(a.u.)=   7.4088    9.9694   10.5574     0.0000    0.0000   -0.0000
     atom=  46, XYZ(ang) Fxyz(a.u.)=   6.1770   12.1004   10.5612     0.0000   -0.0000    0.0000
     atom=  47, XYZ(ang) Fxyz(a.u.)=   4.9430   14.2371   10.5381     0.0000   -0.0000    0.0000
     atom=  48, XYZ(ang) Fxyz(a.u.)=   3.7073   16.3752   10.4867    -0.0000    0.0000   -0.0000
     atom=  49, XYZ(ang) Fxyz(a.u.)=  14.8108    1.4182   10.4406     0.0000    0.0000   -0.0000
     atom=  50, XYZ(ang) Fxyz(a.u.)=  13.5766    3.5559   10.4252     0.0000    0.0000   -0.0000
     atom=  51, XYZ(ang) Fxyz(a.u.)=  12.3424    5.6935   10.4193     0.0000    0.0000    0.0000
     atom=  52, XYZ(ang) Fxyz(a.u.)=  11.1071    7.8303   10.4280    -0.0000    0.0000    0.0000
     atom=  53, XYZ(ang) Fxyz(a.u.)=   9.8746    9.9664   10.4421    -0.0000    0.0000   -0.0000
     atom=  54, XYZ(ang) Fxyz(a.u.)=   8.6439   12.1039   10.4557     0.0000    0.0000    0.0000
     atom=  55, XYZ(ang) Fxyz(a.u.)=   7.4078   14.2383   10.4593    -0.0000   -0.0000    0.0000
     atom=  56, XYZ(ang) Fxyz(a.u.)=   6.1745   16.3739   10.4552     0.0000   -0.0000   -0.0000
     atom=  57, XYZ(ang) Fxyz(a.u.)=  17.2775    1.4188   10.4227    -0.0000    0.0000   -0.0000
     atom=  58, XYZ(ang) Fxyz(a.u.)=  16.0450    3.5557   10.4261     0.0000    0.0000   -0.0000
     atom=  59, XYZ(ang) Fxyz(a.u.)=  14.8107    5.6936   10.4161     0.0000    0.0000   -0.0000
     atom=  60, XYZ(ang) Fxyz(a.u.)=  13.5764    7.8294   10.4000     0.0000   -0.0000   -0.0000
     atom=  61, XYZ(ang) Fxyz(a.u.)=  12.3427    9.9665   10.3898     0.0000   -0.0000   -0.0000
     atom=  62, XYZ(ang) Fxyz(a.u.)=  11.1088   12.1033   10.3872    -0.0000   -0.0000   -0.0000
     atom=  63, XYZ(ang) Fxyz(a.u.)=   9.8756   14.2390   10.3953    -0.0000    0.0000    0.0000
     atom=  64, XYZ(ang) Fxyz(a.u.)=   8.6422   16.3757   10.4108     0.0000    0.0000    0.0000
     atom=  65, XYZ(ang) Fxyz(a.u.)=   1.2398    0.7064   10.3873     0.0000    0.0000    0.0000
     atom=  66, XYZ(ang) Fxyz(a.u.)=   0.0076    2.8442   10.4240     0.0000    0.0000    0.0001
     atom=  67, XYZ(ang) Fxyz(a.u.)=  -1.2229    4.9819   10.4612     0.0000    0.0000    0.0000
     atom=  68, XYZ(ang) Fxyz(a.u.)=  -2.4574    7.1198   10.4597     0.0000    0.0000   -0.0000
     atom=  69, XYZ(ang) Fxyz(a.u.)=  -3.6932    9.2546   10.4186    -0.0000   -0.0000   -0.0000
     atom=  70, XYZ(ang) Fxyz(a.u.)=  -4.9285   11.3906   10.3819     0.0000    0.0000    0.0000
     atom=  71, XYZ(ang) Fxyz(a.u.)=  -6.1619   13.5277   10.3616     0.0000    0.0000   -0.0000
     atom=  72, XYZ(ang) Fxyz(a.u.)=  -7.3952   15.6636   10.3636     0.0000    0.0000   -0.0000
     atom=  73, XYZ(ang) Fxyz(a.u.)=   3.7072    0.7067   10.3806     0.0000   -0.0000   -0.0000
     atom=  74, XYZ(ang) Fxyz(a.u.)=   2.4747    2.8425   10.4216    -0.0000   -0.0000    0.0000
     atom=  75, XYZ(ang) Fxyz(a.u.)=   1.2413    4.9800   10.4885     0.0000   -0.0000    0.0001
     atom=  76, XYZ(ang) Fxyz(a.u.)=   0.0151    7.1218   10.5620    -0.0000    0.0000   -0.0000
     atom=  77, XYZ(ang) Fxyz(a.u.)=  -1.2273    9.2548   10.5043    -0.0000    0.0000   -0.0000
     atom=  78, XYZ(ang) Fxyz(a.u.)=  -2.4612   11.3920   10.4364     0.0000    0.0000   -0.0000
     atom=  79, XYZ(ang) Fxyz(a.u.)=  -3.6944   13.5274   10.3885     0.0000    0.0000   -0.0000
     atom=  80, XYZ(ang) Fxyz(a.u.)=  -4.9286   15.6637   10.3693     0.0000    0.0000   -0.0000
     atom=  81, XYZ(ang) Fxyz(a.u.)=   6.1747    0.7064   10.3961    -0.0000    0.0000   -0.0000
     atom=  82, XYZ(ang) Fxyz(a.u.)=   4.9400    2.8423   10.4264     0.0000   -0.0000   -0.0000
     atom=  83, XYZ(ang) Fxyz(a.u.)=   3.7072    4.9787   10.5039     0.0000   -0.0000    0.0000
     atom=  84, XYZ(ang) Fxyz(a.u.)=   2.4823    7.1125   10.6571    -0.0000    0.0000    0.0000
     atom=  85, XYZ(ang) Fxyz(a.u.)=   1.2390    9.2610   10.6874    -0.0000    0.0000   -0.0000
     atom=  86, XYZ(ang) Fxyz(a.u.)=   0.0048   11.3915   10.5412     0.0000    0.0000   -0.0000
     atom=  87, XYZ(ang) Fxyz(a.u.)=  -1.2287   13.5272   10.4513     0.0000    0.0000   -0.0000
     atom=  88, XYZ(ang) Fxyz(a.u.)=  -2.4612   15.6644   10.4045    -0.0000    0.0000   -0.0000
     atom=  89, XYZ(ang) Fxyz(a.u.)=   8.6412    0.7064   10.4236    -0.0000   -0.0000   -0.0000
     atom=  90, XYZ(ang) Fxyz(a.u.)=   7.4071    2.8440   10.4354     0.0000    0.0000    0.0000
     atom=  91, XYZ(ang) Fxyz(a.u.)=   6.1734    4.9794   10.5000    -0.0000    0.0000    0.0000
     atom=  92, XYZ(ang) Fxyz(a.u.)=   4.9323    7.1120   10.6658     0.0000    0.0000    0.0000
     atom=  93, XYZ(ang) Fxyz(a.u.)=   3.7110    9.2435   11.2034    -0.0000   -0.0000    0.0000
     atom=  94, XYZ(ang) Fxyz(a.u.)=   2.4661   11.3860   10.7036     0.0000   -0.0000    0.0000
     atom=  95, XYZ(ang) Fxyz(a.u.)=   1.2388   13.5270   10.5339    -0.0000    0.0000    0.0000
     atom=  96, XYZ(ang) Fxyz(a.u.)=   0.0062   15.6629   10.4556     0.0000    0.0000   -0.0000
     atom=  97, XYZ(ang) Fxyz(a.u.)=  11.1091    0.7062   10.4477    -0.0000    0.0000    0.0000
     atom=  98, XYZ(ang) Fxyz(a.u.)=   9.8749    2.8439   10.4361     0.0000    0.0000    0.0000
     atom=  99, XYZ(ang) Fxyz(a.u.)=   8.6382    4.9817   10.4734    -0.0000    0.0000   -0.0000
     atom= 100, XYZ(ang) Fxyz(a.u.)=   7.4001    7.1213   10.5739    -0.0000    0.0000   -0.0000
     atom= 101, XYZ(ang) Fxyz(a.u.)=   6.1737    9.2621   10.6830     0.0000    0.0000   -0.0000
     atom= 102, XYZ(ang) Fxyz(a.u.)=   4.9479   11.3838   10.6846     0.0000   -0.0000   -0.0000
     atom= 103, XYZ(ang) Fxyz(a.u.)=   3.7074   13.5174   10.5971    -0.0000   -0.0000   -0.0000
     atom= 104, XYZ(ang) Fxyz(a.u.)=   2.4730   15.6601   10.5011     0.0000    0.0000    0.0000
     atom= 105, XYZ(ang) Fxyz(a.u.)=  13.5765    0.7037   10.4566    -0.0000   -0.0000    0.0000
     atom= 106, XYZ(ang) Fxyz(a.u.)=  12.3424    2.8433   10.4324    -0.0000    0.0000   -0.0000
     atom= 107, XYZ(ang) Fxyz(a.u.)=  11.1065    4.9819   10.4346    -0.0000    0.0000   -0.0001
     atom= 108, XYZ(ang) Fxyz(a.u.)=   9.8722    7.1196   10.4657     0.0000    0.0000   -0.0001
     atom= 109, XYZ(ang) Fxyz(a.u.)=   8.6412    9.2549   10.5019    -0.0000    0.0000   -0.0000
     atom= 110, XYZ(ang) Fxyz(a.u.)=   7.4089   11.3907   10.5245    -0.0000    0.0000   -0.0000
     atom= 111, XYZ(ang) Fxyz(a.u.)=   6.1748   13.5257   10.5163     0.0000   -0.0000   -0.0000
     atom= 112, XYZ(ang) Fxyz(a.u.)=   4.9416   15.6598   10.4930    -0.0000   -0.0000   -0.0000
     atom= 113, XYZ(ang) Fxyz(a.u.)=  16.0439    0.7060   10.4379     0.0000    0.0000    0.0000
     atom= 114, XYZ(ang) Fxyz(a.u.)=  14.8109    2.8433   10.4281     0.0000    0.0000   -0.0000
     atom= 115, XYZ(ang) Fxyz(a.u.)=  13.5767    4.9811   10.4165     0.0000    0.0000   -0.0000
     atom= 116, XYZ(ang) Fxyz(a.u.)=  12.3421    7.1176   10.4116     0.0000   -0.0000   -0.0000
     atom= 117, XYZ(ang) Fxyz(a.u.)=  11.1076    9.2544   10.4166     0.0000   -0.0000    0.0000
     atom= 118, XYZ(ang) Fxyz(a.u.)=   9.8753   11.3917   10.4247    -0.0000   -0.0000   -0.0000
     atom= 119, XYZ(ang) Fxyz(a.u.)=   8.6427   13.5265   10.4334    -0.0000    0.0000   -0.0000
     atom= 120, XYZ(ang) Fxyz(a.u.)=   7.4079   15.6622   10.4403    -0.0000    0.0000    0.0000
     atom= 121, XYZ(ang) Fxyz(a.u.)=  18.5116    0.7063   10.4108     0.0000    0.0000    0.0001
     atom= 122, XYZ(ang) Fxyz(a.u.)=  17.2783    2.8439   10.4253     0.0000    0.0000    0.0000
     atom= 123, XYZ(ang) Fxyz(a.u.)=  16.0468    4.9821   10.4278     0.0000   -0.0000   -0.0000
     atom= 124, XYZ(ang) Fxyz(a.u.)=  14.8109    7.1176   10.4097    -0.0000   -0.0000   -0.0000
     atom= 125, XYZ(ang) Fxyz(a.u.)=  13.5764    9.2546   10.3902     0.0000   -0.0000    0.0000
     atom= 126, XYZ(ang) Fxyz(a.u.)=  12.3429   11.3905   10.3774     0.0000    0.0000   -0.0000
     atom= 127, XYZ(ang) Fxyz(a.u.)=  11.1087   13.5271   10.3771    -0.0000    0.0000   -0.0001
     atom= 128, XYZ(ang) Fxyz(a.u.)=   9.8754   15.6641   10.3907     0.0000    0.0000   -0.0000
     atom= 129, XYZ(ang) Fxyz(a.u.)=   3.6119    9.2032   12.7886    -0.0000    0.0000   -0.0000
     atom= 130, XYZ(ang) Fxyz(a.u.)=   3.0091    8.3507   13.4239    -0.0000   -0.0000   -0.0001
     atom= 131, XYZ(ang) Fxyz(a.u.)=   4.2274   10.2666   13.3786    -0.0000    0.0000   -0.0000
     atom= 132, XYZ(ang) Fxyz(a.u.)=   4.0333   10.1664   14.3338    -0.0000    0.0001    0.0000

outputting data on grids to files...


***********************************************************
***********************************************************
               Computational Time (second)                 
***********************************************************
***********************************************************

                               Min_ID   Min_Time       Max_ID   Max_Time
   Total Computational Time =    50    19467.095          0    19467.220
   readfile                 =    55        2.626          0        2.634
   truncation               =    25       59.300         47       63.321
   MD_pac                   =     0        3.445         34        3.701
   OutData                  =    41        0.572          0        0.688
   DFT                      =    47    19396.763         25    19400.784

*** In DFT ***

   Set_OLP_Kin              =    25       62.153         15      104.766
   Set_Nonlocal             =    15      145.711         25      188.348
   Set_ProExpn_VNA          =    25      290.516         15      310.050
   Set_Hamiltonian          =    34     1089.776          2     1089.792
   Poisson                  =    40       13.244          1       13.247
   Diagonalization          =     0    16771.769         22    16771.795
   Mixing_DM                =    36      117.928          1      117.936
   Force                    =    20      248.608          0      248.611
   Total_Energy             =     8       80.796          0       80.815
   Set_Aden_Grid            =    15        3.976         25       23.640
   Set_Orbitals_Grid        =    25       28.288         63       49.833
   Set_Density_Grid         =    42      409.386         14      434.727
   RestartFileDFT           =    63        4.552          0       19.678
   Mulliken_Charge          =    36        0.859          2        0.859
   FFT(2D)_Density          =     2       14.210         54       14.226
   Others                   =    15        7.718         42       46.431

The calculation was normally finished.
