
The number of threads in each node for OpenMP parallelization is 1.


*******************************************************
*******************************************************
 Welcome to OpenMX   Ver. 3.9.9                           
 Copyright (C), 2002-2019, T. Ozaki                    
 OpenMX comes with ABSOLUTELY NO WARRANTY.             
 This is free software, and you are welcome to         
 redistribute it under the constitution of the GNU-GPL.
*******************************************************
*******************************************************

Automatic determination of Kerker_factor:   3.992939476625


<Input_std>  Your input file was normally read.
<Input_std>  The system includes 1 species and 116 atoms.

*******************************************************
                     PAO and VPS                       
*******************************************************

<SetPara_DFT>  PAOs of species C were normally found.
<SetPara_DFT>  VPSs of species C were normally found.
               C_PBE19.vps is j-dependent.
               In case of scf.SpinOrbit.Coupling=off,
               j-dependent pseudo potentials are averaged by j-degeneracy,
               which corresponds to a scalar relativistic treatment.

*******************************************************
     Fourier transform of PAO and projectors of VNL    
*******************************************************

<FT_PAO>          Fourier transform of pseudo atomic orbitals
<FT_NLP>          Fourier transform of non-local projectors
<FT_ProExpn_VNA>  Fourier transform of VNA separable projectors
<FT_VNA>          Fourier transform of VNA potentials
<FT_ProductPAO>   Fourier transform of product of PAOs

*******************************************************
  Allocation of atoms to processors at MD_iter=    1     
*******************************************************

 proc =   0  # of atoms=   3  estimated weight=         3.00000
 proc =   1  # of atoms=   4  estimated weight=         4.00000
 proc =   2  # of atoms=   3  estimated weight=         3.00000
 proc =   3  # of atoms=   4  estimated weight=         4.00000
 proc =   4  # of atoms=   3  estimated weight=         3.00000
 proc =   5  # of atoms=   4  estimated weight=         4.00000
 proc =   6  # of atoms=   4  estimated weight=         4.00000
 proc =   7  # of atoms=   4  estimated weight=         4.00000
 proc =   8  # of atoms=   3  estimated weight=         3.00000
 proc =   9  # of atoms=   4  estimated weight=         4.00000
 proc =  10  # of atoms=   3  estimated weight=         3.00000
 proc =  11  # of atoms=   4  estimated weight=         4.00000
 proc =  12  # of atoms=   3  estimated weight=         3.00000
 proc =  13  # of atoms=   4  estimated weight=         4.00000
 proc =  14  # of atoms=   4  estimated weight=         4.00000
 proc =  15  # of atoms=   4  estimated weight=         4.00000
 proc =  16  # of atoms=   3  estimated weight=         3.00000
 proc =  17  # of atoms=   4  estimated weight=         4.00000
 proc =  18  # of atoms=   3  estimated weight=         3.00000
 proc =  19  # of atoms=   4  estimated weight=         4.00000
 proc =  20  # of atoms=   3  estimated weight=         3.00000
 proc =  21  # of atoms=   4  estimated weight=         4.00000
 proc =  22  # of atoms=   4  estimated weight=         4.00000
 proc =  23  # of atoms=   4  estimated weight=         4.00000
 proc =  24  # of atoms=   3  estimated weight=         3.00000
 proc =  25  # of atoms=   4  estimated weight=         4.00000
 proc =  26  # of atoms=   3  estimated weight=         3.00000
 proc =  27  # of atoms=   4  estimated weight=         4.00000
 proc =  28  # of atoms=   3  estimated weight=         3.00000
 proc =  29  # of atoms=   4  estimated weight=         4.00000
 proc =  30  # of atoms=   4  estimated weight=         4.00000
 proc =  31  # of atoms=   4  estimated weight=         4.00000




*******************************************************
        Analysis of neighbors and setting of grids        
*******************************************************

TFNAN=    4812   Average FNAN=  41.48276
TSNAN=       0   Average SNAN=   0.00000
<truncation> CpyCell= 1 ct_AN=   1 FNAN SNAN  44   0
<truncation> CpyCell= 1 ct_AN=   2 FNAN SNAN  44   0
<truncation> CpyCell= 1 ct_AN=   3 FNAN SNAN  44   0
<truncation> CpyCell= 1 ct_AN=   4 FNAN SNAN  44   0
<truncation> CpyCell= 1 ct_AN=   5 FNAN SNAN  45   0
<truncation> CpyCell= 1 ct_AN=   6 FNAN SNAN  45   0
<truncation> CpyCell= 1 ct_AN=   7 FNAN SNAN  45   0
<truncation> CpyCell= 1 ct_AN=   8 FNAN SNAN  45   0
<truncation> CpyCell= 1 ct_AN=   9 FNAN SNAN  42   0
<truncation> CpyCell= 1 ct_AN=  10 FNAN SNAN  40   0
<truncation> CpyCell= 1 ct_AN=  11 FNAN SNAN  39   0
<truncation> CpyCell= 1 ct_AN=  12 FNAN SNAN  40   0
<truncation> CpyCell= 1 ct_AN=  13 FNAN SNAN  42   0
<truncation> CpyCell= 1 ct_AN=  14 FNAN SNAN  45   0
<truncation> CpyCell= 1 ct_AN=  15 FNAN SNAN  45   0
<truncation> CpyCell= 1 ct_AN=  16 FNAN SNAN  45   0
<truncation> CpyCell= 1 ct_AN=  17 FNAN SNAN  41   0
<truncation> CpyCell= 1 ct_AN=  18 FNAN SNAN  37   0
<truncation> CpyCell= 1 ct_AN=  19 FNAN SNAN  34   0
<truncation> CpyCell= 1 ct_AN=  20 FNAN SNAN  34   0
     ..........
     ......

TFNAN=    4812   Average FNAN=  41.48276
TSNAN=       0   Average SNAN=   0.00000
<truncation> CpyCell= 2 ct_AN=   1 FNAN SNAN  44   0
<truncation> CpyCell= 2 ct_AN=   2 FNAN SNAN  44   0
<truncation> CpyCell= 2 ct_AN=   3 FNAN SNAN  44   0
<truncation> CpyCell= 2 ct_AN=   4 FNAN SNAN  44   0
<truncation> CpyCell= 2 ct_AN=   5 FNAN SNAN  45   0
<truncation> CpyCell= 2 ct_AN=   6 FNAN SNAN  45   0
<truncation> CpyCell= 2 ct_AN=   7 FNAN SNAN  45   0
<truncation> CpyCell= 2 ct_AN=   8 FNAN SNAN  45   0
<truncation> CpyCell= 2 ct_AN=   9 FNAN SNAN  42   0
<truncation> CpyCell= 2 ct_AN=  10 FNAN SNAN  40   0
<truncation> CpyCell= 2 ct_AN=  11 FNAN SNAN  39   0
<truncation> CpyCell= 2 ct_AN=  12 FNAN SNAN  40   0
<truncation> CpyCell= 2 ct_AN=  13 FNAN SNAN  42   0
<truncation> CpyCell= 2 ct_AN=  14 FNAN SNAN  45   0
<truncation> CpyCell= 2 ct_AN=  15 FNAN SNAN  45   0
<truncation> CpyCell= 2 ct_AN=  16 FNAN SNAN  45   0
<truncation> CpyCell= 2 ct_AN=  17 FNAN SNAN  41   0
<truncation> CpyCell= 2 ct_AN=  18 FNAN SNAN  37   0
<truncation> CpyCell= 2 ct_AN=  19 FNAN SNAN  34   0
<truncation> CpyCell= 2 ct_AN=  20 FNAN SNAN  34   0
     ..........
     ......

TFNAN=    4812   Average FNAN=  41.48276
TSNAN=       0   Average SNAN=   0.00000
<truncation> CpyCell= 2 ct_AN=   1 FNAN SNAN  44   0
<truncation> CpyCell= 2 ct_AN=   2 FNAN SNAN  44   0
<truncation> CpyCell= 2 ct_AN=   3 FNAN SNAN  44   0
<truncation> CpyCell= 2 ct_AN=   4 FNAN SNAN  44   0
<truncation> CpyCell= 2 ct_AN=   5 FNAN SNAN  45   0
<truncation> CpyCell= 2 ct_AN=   6 FNAN SNAN  45   0
<truncation> CpyCell= 2 ct_AN=   7 FNAN SNAN  45   0
<truncation> CpyCell= 2 ct_AN=   8 FNAN SNAN  45   0
<truncation> CpyCell= 2 ct_AN=   9 FNAN SNAN  42   0
<truncation> CpyCell= 2 ct_AN=  10 FNAN SNAN  40   0
<truncation> CpyCell= 2 ct_AN=  11 FNAN SNAN  39   0
<truncation> CpyCell= 2 ct_AN=  12 FNAN SNAN  40   0
<truncation> CpyCell= 2 ct_AN=  13 FNAN SNAN  42   0
<truncation> CpyCell= 2 ct_AN=  14 FNAN SNAN  45   0
<truncation> CpyCell= 2 ct_AN=  15 FNAN SNAN  45   0
<truncation> CpyCell= 2 ct_AN=  16 FNAN SNAN  45   0
<truncation> CpyCell= 2 ct_AN=  17 FNAN SNAN  41   0
<truncation> CpyCell= 2 ct_AN=  18 FNAN SNAN  37   0
<truncation> CpyCell= 2 ct_AN=  19 FNAN SNAN  34   0
<truncation> CpyCell= 2 ct_AN=  20 FNAN SNAN  34   0
     ..........
     ......

<Check_System> The system is slab.
lattice vectors (bohr)
A  = 37.300037061873,  0.000000000000,  0.000000000000
B  = -18.650023066279, 32.302777060622,  0.000000000000
C  =  0.000000000000,  0.000000000000, 39.684245760157
reciprocal lattice vectors (bohr^-1)
RA =  0.168449840861,  0.097254592436, -0.000000000000
RB =  0.000000000000,  0.194509137570,  0.000000000000
RC =  0.000000000000, -0.000000000000,  0.158329462658
Grid_Origin  0.051805605836  0.089729923247  0.091861680000
Cell_Volume =  47815.340626661513 (Bohr^3)
GridVol     =      0.006832324621 (Bohr^3)
Grid_Origin  0.051805605836  0.089729923247  0.091861680000
Cell_Volume =  47815.340626661513 (Bohr^3)
GridVol     =      0.006832324621 (Bohr^3)
<UCell_Box> Info. of cutoff energy and num. of grids
lattice vectors (bohr)
A  = 37.300037061873,  0.000000000000,  0.000000000000
B  = -18.650023066279, 32.302777060622,  0.000000000000
C  =  0.000000000000,  0.000000000000, 39.684245760157
reciprocal lattice vectors (bohr^-1)
RA =  0.168449840861,  0.097254592436, -0.000000000000
RB =  0.000000000000,  0.194509137570,  0.000000000000
RC =  0.000000000000, -0.000000000000,  0.158329462658
Required cutoff energy (Ryd) for 3D-grids = 300.0000
    Used cutoff energy (Ryd) for 3D-grids = 306.4538, 306.4538, 292.3957
Num. of grids of a-, b-, and c-axes = 180, 180, 216
Grid_Origin  0.051805605836  0.089729923247  0.091861680000
Cell_Volume =  47815.340626661513 (Bohr^3)
GridVol     =      0.006832324621 (Bohr^3)
Cell vectors (bohr) of the grid cell (gtv)
  gtv_a =  0.207222428122,  0.000000000000,  0.000000000000
  gtv_b = -0.103611239257,  0.179459872559,  0.000000000000
  gtv_c =  0.000000000000,  0.000000000000,  0.183723360001
  |gtv_a| =  0.207222428122
  |gtv_b| =  0.207222428225
  |gtv_c| =  0.183723360001
Num. of grids overlapping with atom    1 = 132408
Num. of grids overlapping with atom    2 = 132426
Num. of grids overlapping with atom    3 = 132408
Num. of grids overlapping with atom    4 = 132426
Num. of grids overlapping with atom    5 = 132408
Num. of grids overlapping with atom    6 = 132426
Num. of grids overlapping with atom    7 = 132408
Num. of grids overlapping with atom    8 = 132426
Num. of grids overlapping with atom    9 = 132408
Num. of grids overlapping with atom   10 = 132408
Num. of grids overlapping with atom   11 = 132408
Num. of grids overlapping with atom   12 = 132408
Num. of grids overlapping with atom   13 = 132408
Num. of grids overlapping with atom   14 = 132408
Num. of grids overlapping with atom   15 = 132408
Num. of grids overlapping with atom   16 = 132408
Num. of grids overlapping with atom   17 = 132408
Num. of grids overlapping with atom   18 = 132426
Num. of grids overlapping with atom   19 = 132408
Num. of grids overlapping with atom   20 = 132426
     ..........
     ......


*******************************************************
             SCF calculation at MD = 1                
*******************************************************

<MD= 1>  Calculation of the overlap matrix
<MD= 1>  Calculation of the nonlocal matrix
<MD= 1>  Calculation of the VNA projector matrix

******************* MD= 1  SCF= 1 *******************
<Band>  Solving the eigenvalue problem...
 KGrids1:  -0.43750  -0.31250  -0.18750  -0.06250   0.06250   0.18750   0.31250   0.43750 
 KGrids2:  -0.43750  -0.31250  -0.18750  -0.06250   0.06250   0.18750   0.31250   0.43750 
 KGrids3:   0.00000 
<Band_DFT>  Eigen, time=20.614319
<Band_DFT>  DM, time=0.000041
    1    C  MulP   1.9995  1.9995 sum   3.9990
    2    C  MulP   1.9985  1.9985 sum   3.9969
    3    C  MulP   1.9987  1.9987 sum   3.9973
    4    C  MulP   1.9993  1.9993 sum   3.9986
    5    C  MulP   1.9989  1.9989 sum   3.9979
    6    C  MulP   1.9990  1.9990 sum   3.9979
    7    C  MulP   1.9991  1.9991 sum   3.9983
    8    C  MulP   1.9987  1.9987 sum   3.9975
    9    C  MulP   1.9981  1.9981 sum   3.9963
   10    C  MulP   1.9924  1.9924 sum   3.9847
   11    C  MulP   1.9834  1.9834 sum   3.9667
   12    C  MulP   1.9924  1.9924 sum   3.9847
   13    C  MulP   1.9981  1.9981 sum   3.9962
   14    C  MulP   1.9991  1.9991 sum   3.9983
   15    C  MulP   1.9996  1.9996 sum   3.9992
   16    C  MulP   1.9991  1.9991 sum   3.9983
   17    C  MulP   1.9979  1.9979 sum   3.9958
   18    C  MulP   2.0024  2.0024 sum   4.0048
   19    C  MulP   2.0207  2.0207 sum   4.0415
   20    C  MulP   2.0207  2.0207 sum   4.0414
     ..........
     ......

 Sum of MulP: up   =   232.00000 down          =   232.00000
              total=   464.00000 ideal(neutral)=   464.00000
<DFT>  Total Spin Moment (muB) =  0.000000000000
<DFT>  Mixing_weight= 0.050000000000
<DFT>  Uele   = -184.961459052457  dUele     =   1.000000000000
<DFT>  NormRD =    1.000000000000  Criterion =   0.000000010000

******************* MD= 1  SCF= 2 *******************
<Poisson>  Poisson's equation using FFT...
<Set_Hamiltonian>  Hamiltonian matrix for VNA+dVH+Vxc...
<Band>  Solving the eigenvalue problem...
 KGrids1:  -0.43750  -0.31250  -0.18750  -0.06250   0.06250   0.18750   0.31250   0.43750 
 KGrids2:  -0.43750  -0.31250  -0.18750  -0.06250   0.06250   0.18750   0.31250   0.43750 
 KGrids3:   0.00000 
<Band_DFT>  Eigen, time=11.429622
<Band_DFT>  DM, time=0.000000
    1    C  MulP   1.9995  1.9995 sum   3.9990
    2    C  MulP   1.9985  1.9985 sum   3.9969
    3    C  MulP   1.9987  1.9987 sum   3.9973
    4    C  MulP   1.9993  1.9993 sum   3.9986
    5    C  MulP   1.9989  1.9989 sum   3.9979
    6    C  MulP   1.9990  1.9990 sum   3.9979
    7    C  MulP   1.9991  1.9991 sum   3.9983
    8    C  MulP   1.9987  1.9987 sum   3.9975
    9    C  MulP   1.9981  1.9981 sum   3.9963
   10    C  MulP   1.9924  1.9924 sum   3.9847
   11    C  MulP   1.9834  1.9834 sum   3.9667
   12    C  MulP   1.9924  1.9924 sum   3.9847
   13    C  MulP   1.9981  1.9981 sum   3.9962
   14    C  MulP   1.9991  1.9991 sum   3.9983
   15    C  MulP   1.9996  1.9996 sum   3.9992
   16    C  MulP   1.9991  1.9991 sum   3.9983
   17    C  MulP   1.9979  1.9979 sum   3.9958
   18    C  MulP   2.0024  2.0024 sum   4.0048
   19    C  MulP   2.0207  2.0207 sum   4.0415
   20    C  MulP   2.0207  2.0207 sum   4.0414
     ..........
     ......

 Sum of MulP: up   =   232.00000 down          =   232.00000
              total=   464.00000 ideal(neutral)=   464.00000
<DFT>  Total Spin Moment (muB) =  0.000000000000
<DFT>  Mixing_weight= 0.010000000000
<DFT>  Uele   = -184.961459052457  dUele     =   0.000000000000
<DFT>  NormRD =    9.613516636130  Criterion =   0.000000010000

******************* MD= 1  SCF= 3 *******************
<Poisson>  Poisson's equation using FFT...
<Set_Hamiltonian>  Hamiltonian matrix for VNA+dVH+Vxc...
<Band>  Solving the eigenvalue problem...
 KGrids1:  -0.43750  -0.31250  -0.18750  -0.06250   0.06250   0.18750   0.31250   0.43750 
 KGrids2:  -0.43750  -0.31250  -0.18750  -0.06250   0.06250   0.18750   0.31250   0.43750 
 KGrids3:   0.00000 
<Band_DFT>  Eigen, time=11.443535
<Band_DFT>  DM, time=0.000001
    1    C  MulP   1.9994  1.9994 sum   3.9988
    2    C  MulP   1.9984  1.9984 sum   3.9967
    3    C  MulP   1.9986  1.9986 sum   3.9972
    4    C  MulP   1.9992  1.9992 sum   3.9984
    5    C  MulP   1.9989  1.9989 sum   3.9978
    6    C  MulP   1.9989  1.9989 sum   3.9977
    7    C  MulP   1.9990  1.9990 sum   3.9981
    8    C  MulP   1.9987  1.9987 sum   3.9974
    9    C  MulP   1.9981  1.9981 sum   3.9961
   10    C  MulP   1.9924  1.9924 sum   3.9848
   11    C  MulP   1.9832  1.9832 sum   3.9664
   12    C  MulP   1.9924  1.9924 sum   3.9847
   13    C  MulP   1.9980  1.9980 sum   3.9961
   14    C  MulP   1.9990  1.9990 sum   3.9981
   15    C  MulP   1.9995  1.9995 sum   3.9991
   16    C  MulP   1.9990  1.9990 sum   3.9981
   17    C  MulP   1.9978  1.9978 sum   3.9957
   18    C  MulP   2.0022  2.0022 sum   4.0043
   19    C  MulP   2.0216  2.0216 sum   4.0432
   20    C  MulP   2.0215  2.0215 sum   4.0431
     ..........
     ......

 Sum of MulP: up   =   232.00000 down          =   232.00000
              total=   464.00000 ideal(neutral)=   464.00000
<DFT>  Total Spin Moment (muB) =  0.000000000000
<DFT>  Mixing_weight= 0.300000000000
<DFT>  Uele   = -185.370935286039  dUele     =   0.409476233582
<DFT>  NormRD =    9.504977748914  Criterion =   0.000000010000

******************* MD= 1  SCF= 4 *******************
<Poisson>  Poisson's equation using FFT...
<Set_Hamiltonian>  Hamiltonian matrix for VNA+dVH+Vxc...
<Band>  Solving the eigenvalue problem...
 KGrids1:  -0.43750  -0.31250  -0.18750  -0.06250   0.06250   0.18750   0.31250   0.43750 
 KGrids2:  -0.43750  -0.31250  -0.18750  -0.06250   0.06250   0.18750   0.31250   0.43750 
 KGrids3:   0.00000 
<Band_DFT>  Eigen, time=11.421794
<Band_DFT>  DM, time=0.000000
    1    C  MulP   1.9940  1.9940 sum   3.9880
    2    C  MulP   1.9943  1.9943 sum   3.9885
    3    C  MulP   1.9945  1.9945 sum   3.9889
    4    C  MulP   1.9938  1.9938 sum   3.9876
    5    C  MulP   1.9972  1.9972 sum   3.9944
    6    C  MulP   1.9941  1.9941 sum   3.9882
    7    C  MulP   1.9943  1.9943 sum   3.9886
    8    C  MulP   1.9970  1.9970 sum   3.9941
    9    C  MulP   1.9937  1.9937 sum   3.9874
   10    C  MulP   1.9928  1.9928 sum   3.9855
   11    C  MulP   1.9763  1.9763 sum   3.9526
   12    C  MulP   1.9927  1.9927 sum   3.9855
   13    C  MulP   1.9936  1.9936 sum   3.9873
   14    C  MulP   1.9943  1.9943 sum   3.9886
   15    C  MulP   1.9979  1.9979 sum   3.9959
   16    C  MulP   1.9943  1.9943 sum   3.9886
   17    C  MulP   1.9966  1.9966 sum   3.9932
   18    C  MulP   1.9926  1.9926 sum   3.9853
   19    C  MulP   2.0587  2.0587 sum   4.1174
   20    C  MulP   2.0585  2.0585 sum   4.1170
     ..........
     ......

 Sum of MulP: up   =   232.00000 down          =   232.00000
              total=   464.00000 ideal(neutral)=   464.00000
<DFT>  Total Spin Moment (muB) =  0.000000000000
<DFT>  Mixing_weight= 0.300000000000
<DFT>  Uele   = -197.474140684721  dUele     =  12.103205398683
<DFT>  NormRD =    6.316019844507  Criterion =   0.000000010000

******************* MD= 1  SCF= 5 *******************
<Poisson>  Poisson's equation using FFT...
<Set_Hamiltonian>  Hamiltonian matrix for VNA+dVH+Vxc...
<Band>  Solving the eigenvalue problem...
 KGrids1:  -0.43750  -0.31250  -0.18750  -0.06250   0.06250   0.18750   0.31250   0.43750 
 KGrids2:  -0.43750  -0.31250  -0.18750  -0.06250   0.06250   0.18750   0.31250   0.43750 
 KGrids3:   0.00000 
<Band_DFT>  Eigen, time=11.434171
<Band_DFT>  DM, time=0.000001
    1    C  MulP   1.9998  1.9998 sum   3.9996
    2    C  MulP   1.9989  1.9989 sum   3.9977
    3    C  MulP   1.9990  1.9990 sum   3.9981
    4    C  MulP   1.9996  1.9996 sum   3.9993
    5    C  MulP   1.9985  1.9985 sum   3.9970
    6    C  MulP   1.9989  1.9989 sum   3.9979
    7    C  MulP   1.9991  1.9991 sum   3.9983
    8    C  MulP   1.9983  1.9983 sum   3.9966
    9    C  MulP   1.9991  1.9991 sum   3.9981
   10    C  MulP   1.9947  1.9947 sum   3.9893
   11    C  MulP   1.9800  1.9800 sum   3.9600
   12    C  MulP   1.9946  1.9946 sum   3.9893
   13    C  MulP   1.9991  1.9991 sum   3.9981
   14    C  MulP   1.9992  1.9992 sum   3.9983
   15    C  MulP   1.9985  1.9985 sum   3.9970
   16    C  MulP   1.9991  1.9991 sum   3.9983
   17    C  MulP   1.9991  1.9991 sum   3.9981
   18    C  MulP   1.9948  1.9948 sum   3.9897
   19    C  MulP   2.0258  2.0258 sum   4.0515
   20    C  MulP   2.0256  2.0256 sum   4.0513
     ..........
     ......

 Sum of MulP: up   =   232.00000 down          =   232.00000
              total=   464.00000 ideal(neutral)=   464.00000
<DFT>  Total Spin Moment (muB) =  0.000000000000
<DFT>  Mixing_weight= 0.300000000000
<DFT>  Uele   = -205.331471041189  dUele     =   7.857330356467
<DFT>  NormRD =    4.256144989599  Criterion =   0.000000010000

******************* MD= 1  SCF= 6 *******************
<Poisson>  Poisson's equation using FFT...
<Set_Hamiltonian>  Hamiltonian matrix for VNA+dVH+Vxc...
<Band>  Solving the eigenvalue problem...
 KGrids1:  -0.43750  -0.31250  -0.18750  -0.06250   0.06250   0.18750   0.31250   0.43750 
 KGrids2:  -0.43750  -0.31250  -0.18750  -0.06250   0.06250   0.18750   0.31250   0.43750 
 KGrids3:   0.00000 
<Band_DFT>  Eigen, time=11.419847
<Band_DFT>  DM, time=0.000000
    1    C  MulP   1.9965  1.9965 sum   3.9930
    2    C  MulP   1.9964  1.9964 sum   3.9927
    3    C  MulP   1.9966  1.9966 sum   3.9932
    4    C  MulP   1.9963  1.9963 sum   3.9926
    5    C  MulP   1.9983  1.9983 sum   3.9967
    6    C  MulP   1.9964  1.9964 sum   3.9928
    7    C  MulP   1.9966  1.9966 sum   3.9932
    8    C  MulP   1.9981  1.9981 sum   3.9963
    9    C  MulP   1.9961  1.9961 sum   3.9922
   10    C  MulP   1.9937  1.9937 sum   3.9875
   11    C  MulP   1.9776  1.9776 sum   3.9552
   12    C  MulP   1.9937  1.9937 sum   3.9874
   13    C  MulP   1.9960  1.9960 sum   3.9921
   14    C  MulP   1.9966  1.9966 sum   3.9932
   15    C  MulP   1.9986  1.9986 sum   3.9973
   16    C  MulP   1.9966  1.9966 sum   3.9932
   17    C  MulP   1.9980  1.9980 sum   3.9960
   18    C  MulP   1.9895  1.9895 sum   3.9790
   19    C  MulP   2.0474  2.0474 sum   4.0948
   20    C  MulP   2.0472  2.0472 sum   4.0945
     ..........
     ......

 Sum of MulP: up   =   232.00000 down          =   232.00000
              total=   464.00000 ideal(neutral)=   464.00000
<DFT>  Total Spin Moment (muB) =  0.000000000000
<DFT>  Mixing_weight= 0.300000000000
<DFT>  Uele   = -210.195388207713  dUele     =   4.863917166524
<DFT>  NormRD =    2.877249492166  Criterion =   0.000000010000

******************* MD= 1  SCF= 7 *******************
<Poisson>  Poisson's equation using FFT...
<Set_Hamiltonian>  Hamiltonian matrix for VNA+dVH+Vxc...
<Band>  Solving the eigenvalue problem...
 KGrids1:  -0.43750  -0.31250  -0.18750  -0.06250   0.06250   0.18750   0.31250   0.43750 
 KGrids2:  -0.43750  -0.31250  -0.18750  -0.06250   0.06250   0.18750   0.31250   0.43750 
 KGrids3:   0.00000 
<Band_DFT>  Eigen, time=11.420748
<Band_DFT>  DM, time=0.000001
    1    C  MulP   2.0000  2.0000 sum   4.0001
    2    C  MulP   1.9992  1.9992 sum   3.9983
    3    C  MulP   1.9993  1.9993 sum   3.9987
    4    C  MulP   1.9999  1.9999 sum   3.9997
    5    C  MulP   1.9991  1.9991 sum   3.9982
    6    C  MulP   1.9994  1.9994 sum   3.9987
    7    C  MulP   1.9996  1.9996 sum   3.9991
    8    C  MulP   1.9989  1.9989 sum   3.9978
    9    C  MulP   1.9993  1.9993 sum   3.9986
   10    C  MulP   1.9946  1.9946 sum   3.9892
   11    C  MulP   1.9807  1.9807 sum   3.9614
   12    C  MulP   1.9946  1.9946 sum   3.9891
   13    C  MulP   1.9993  1.9993 sum   3.9986
   14    C  MulP   1.9996  1.9996 sum   3.9992
   15    C  MulP   1.9992  1.9992 sum   3.9984
   16    C  MulP   1.9996  1.9996 sum   3.9991
   17    C  MulP   1.9992  1.9992 sum   3.9985
   18    C  MulP   1.9919  1.9919 sum   3.9838
   19    C  MulP   2.0265  2.0265 sum   4.0529
   20    C  MulP   2.0263  2.0263 sum   4.0525
     ..........
     ......

 Sum of MulP: up   =   232.00000 down          =   232.00000
              total=   464.00000 ideal(neutral)=   464.00000
<DFT>  Total Spin Moment (muB) =  0.000000000000
<DFT>  Mixing_weight= 0.300000000000
<DFT>  Uele   = -213.561825294775  dUele     =   3.366437087062
<DFT>  NormRD =    1.965288121587  Criterion =   0.000000010000

******************* MD= 1  SCF= 8 *******************
<Poisson>  Poisson's equation using FFT...
<Set_Hamiltonian>  Hamiltonian matrix for VNA+dVH+Vxc...
<Band>  Solving the eigenvalue problem...
 KGrids1:  -0.43750  -0.31250  -0.18750  -0.06250   0.06250   0.18750   0.31250   0.43750 
 KGrids2:  -0.43750  -0.31250  -0.18750  -0.06250   0.06250   0.18750   0.31250   0.43750 
 KGrids3:   0.00000 
<Band_DFT>  Eigen, time=11.430712
<Band_DFT>  DM, time=0.000000
    1    C  MulP   1.9976  1.9976 sum   3.9951
    2    C  MulP   1.9972  1.9972 sum   3.9945
    3    C  MulP   1.9975  1.9975 sum   3.9950
    4    C  MulP   1.9973  1.9973 sum   3.9946
    5    C  MulP   1.9989  1.9989 sum   3.9978
    6    C  MulP   1.9974  1.9974 sum   3.9948
    7    C  MulP   1.9976  1.9976 sum   3.9953
    8    C  MulP   1.9987  1.9987 sum   3.9974
    9    C  MulP   1.9971  1.9971 sum   3.9942
   10    C  MulP   1.9940  1.9940 sum   3.9880
   11    C  MulP   1.9788  1.9788 sum   3.9575
   12    C  MulP   1.9940  1.9940 sum   3.9879
   13    C  MulP   1.9970  1.9970 sum   3.9941
   14    C  MulP   1.9976  1.9976 sum   3.9952
   15    C  MulP   1.9992  1.9992 sum   3.9984
   16    C  MulP   1.9976  1.9976 sum   3.9953
   17    C  MulP   1.9985  1.9985 sum   3.9969
   18    C  MulP   1.9886  1.9886 sum   3.9771
   19    C  MulP   2.0421  2.0421 sum   4.0842
   20    C  MulP   2.0419  2.0419 sum   4.0839
     ..........
     ......

 Sum of MulP: up   =   232.00000 down          =   232.00000
              total=   464.00000 ideal(neutral)=   464.00000
<DFT>  Total Spin Moment (muB) =  0.000000000000
<DFT>  Mixing_weight= 0.300000000000
<DFT>  Uele   = -215.712837324780  dUele     =   2.151012030005
<DFT>  NormRD =    1.345017079100  Criterion =   0.000000010000

******************* MD= 1  SCF= 9 *******************
<Poisson>  Poisson's equation using FFT...
<Set_Hamiltonian>  Hamiltonian matrix for VNA+dVH+Vxc...
<Band>  Solving the eigenvalue problem...
 KGrids1:  -0.43750  -0.31250  -0.18750  -0.06250   0.06250   0.18750   0.31250   0.43750 
 KGrids2:  -0.43750  -0.31250  -0.18750  -0.06250   0.06250   0.18750   0.31250   0.43750 
 KGrids3:   0.00000 
<Band_DFT>  Eigen, time=11.420582
<Band_DFT>  DM, time=0.000000
    1    C  MulP   2.0000  2.0000 sum   4.0000
    2    C  MulP   1.9992  1.9992 sum   3.9984
    3    C  MulP   1.9994  1.9994 sum   3.9987
    4    C  MulP   1.9998  1.9998 sum   3.9997
    5    C  MulP   1.9994  1.9994 sum   3.9988
    6    C  MulP   1.9995  1.9995 sum   3.9989
    7    C  MulP   1.9997  1.9997 sum   3.9993
    8    C  MulP   1.9992  1.9992 sum   3.9984
    9    C  MulP   1.9993  1.9993 sum   3.9987
   10    C  MulP   1.9946  1.9946 sum   3.9892
   11    C  MulP   1.9810  1.9810 sum   3.9619
   12    C  MulP   1.9946  1.9946 sum   3.9892
   13    C  MulP   1.9993  1.9993 sum   3.9986
   14    C  MulP   1.9997  1.9997 sum   3.9994
   15    C  MulP   1.9995  1.9995 sum   3.9990
   16    C  MulP   1.9997  1.9997 sum   3.9993
   17    C  MulP   1.9993  1.9993 sum   3.9986
   18    C  MulP   1.9907  1.9907 sum   3.9815
   19    C  MulP   2.0271  2.0271 sum   4.0542
   20    C  MulP   2.0269  2.0269 sum   4.0538
     ..........
     ......

 Sum of MulP: up   =   232.00000 down          =   232.00000
              total=   464.00000 ideal(neutral)=   464.00000
<DFT>  Total Spin Moment (muB) =  0.000000000000
<DFT>  Mixing_weight= 0.300000000000
<DFT>  Uele   = -217.326509847251  dUele     =   1.613672522472
<DFT>  NormRD =    0.928221658676  Criterion =   0.000000010000

******************* MD= 1  SCF=10 *******************
<Poisson>  Poisson's equation using FFT...
<Set_Hamiltonian>  Hamiltonian matrix for VNA+dVH+Vxc...
<Band>  Solving the eigenvalue problem...
 KGrids1:  -0.43750  -0.31250  -0.18750  -0.06250   0.06250   0.18750   0.31250   0.43750 
 KGrids2:  -0.43750  -0.31250  -0.18750  -0.06250   0.06250   0.18750   0.31250   0.43750 
 KGrids3:   0.00000 
<Band_DFT>  Eigen, time=11.419205
<Band_DFT>  DM, time=0.000000
    1    C  MulP   1.9981  1.9981 sum   3.9962
    2    C  MulP   1.9977  1.9977 sum   3.9954
    3    C  MulP   1.9980  1.9980 sum   3.9959
    4    C  MulP   1.9979  1.9979 sum   3.9957
    5    C  MulP   1.9992  1.9992 sum   3.9984
    6    C  MulP   1.9979  1.9979 sum   3.9959
    7    C  MulP   1.9981  1.9981 sum   3.9963
    8    C  MulP   1.9990  1.9990 sum   3.9980
    9    C  MulP   1.9976  1.9976 sum   3.9952
   10    C  MulP   1.9942  1.9942 sum   3.9883
   11    C  MulP   1.9794  1.9794 sum   3.9588
   12    C  MulP   1.9941  1.9941 sum   3.9882
   13    C  MulP   1.9976  1.9976 sum   3.9951
   14    C  MulP   1.9981  1.9981 sum   3.9963
   15    C  MulP   1.9995  1.9995 sum   3.9989
   16    C  MulP   1.9981  1.9981 sum   3.9963
   17    C  MulP   1.9987  1.9987 sum   3.9974
   18    C  MulP   1.9885  1.9885 sum   3.9769
   19    C  MulP   2.0390  2.0390 sum   4.0780
   20    C  MulP   2.0388  2.0388 sum   4.0776
     ..........
     ......

 Sum of MulP: up   =   232.00000 down          =   232.00000
              total=   464.00000 ideal(neutral)=   464.00000
<DFT>  Total Spin Moment (muB) =  0.000000000000
<DFT>  Mixing_weight= 0.300000000000
<DFT>  Uele   = -218.386874507853  dUele     =   1.060364660602
<DFT>  NormRD =    0.642394905815  Criterion =   0.000000010000

******************* MD= 1  SCF=11 *******************
<Poisson>  Poisson's equation using FFT...
<Set_Hamiltonian>  Hamiltonian matrix for VNA+dVH+Vxc...
<Band>  Solving the eigenvalue problem...
 KGrids1:  -0.43750  -0.31250  -0.18750  -0.06250   0.06250   0.18750   0.31250   0.43750 
 KGrids2:  -0.43750  -0.31250  -0.18750  -0.06250   0.06250   0.18750   0.31250   0.43750 
 KGrids3:   0.00000 
<Band_DFT>  Eigen, time=11.415966
<Band_DFT>  DM, time=0.000001
    1    C  MulP   1.9999  1.9999 sum   3.9998
    2    C  MulP   1.9991  1.9991 sum   3.9983
    3    C  MulP   1.9993  1.9993 sum   3.9986
    4    C  MulP   1.9997  1.9997 sum   3.9994
    5    C  MulP   1.9995  1.9995 sum   3.9990
    6    C  MulP   1.9994  1.9994 sum   3.9988
    7    C  MulP   1.9996  1.9996 sum   3.9993
    8    C  MulP   1.9993  1.9993 sum   3.9986
    9    C  MulP   1.9993  1.9993 sum   3.9985
   10    C  MulP   1.9946  1.9946 sum   3.9893
   11    C  MulP   1.9810  1.9810 sum   3.9620
   12    C  MulP   1.9946  1.9946 sum   3.9892
   13    C  MulP   1.9992  1.9992 sum   3.9985
   14    C  MulP   1.9996  1.9996 sum   3.9993
   15    C  MulP   1.9997  1.9997 sum   3.9993
   16    C  MulP   1.9996  1.9996 sum   3.9993
   17    C  MulP   1.9993  1.9993 sum   3.9986
   18    C  MulP   1.9902  1.9902 sum   3.9804
   19    C  MulP   2.0278  2.0278 sum   4.0556
   20    C  MulP   2.0276  2.0276 sum   4.0552
     ..........
     ......

 Sum of MulP: up   =   232.00000 down          =   232.00000
              total=   464.00000 ideal(neutral)=   464.00000
<DFT>  Total Spin Moment (muB) =  0.000000000000
<DFT>  Mixing_weight= 0.300000000000
<DFT>  Uele   = -219.258972360076  dUele     =   0.872097852223
<DFT>  NormRD =    0.447528362714  Criterion =   0.000000010000

******************* MD= 1  SCF=12 *******************
<Poisson>  Poisson's equation using FFT...
<Set_Hamiltonian>  Hamiltonian matrix for VNA+dVH+Vxc...
<Band>  Solving the eigenvalue problem...
 KGrids1:  -0.43750  -0.31250  -0.18750  -0.06250   0.06250   0.18750   0.31250   0.43750 
 KGrids2:  -0.43750  -0.31250  -0.18750  -0.06250   0.06250   0.18750   0.31250   0.43750 
 KGrids3:   0.00000 
<Band_DFT>  Eigen, time=11.419126
<Band_DFT>  DM, time=0.000000
    1    C  MulP   1.9984  1.9984 sum   3.9968
    2    C  MulP   1.9980  1.9980 sum   3.9960
    3    C  MulP   1.9982  1.9982 sum   3.9964
    4    C  MulP   1.9982  1.9982 sum   3.9964
    5    C  MulP   1.9993  1.9993 sum   3.9987
    6    C  MulP   1.9982  1.9982 sum   3.9965
    7    C  MulP   1.9985  1.9985 sum   3.9969
    8    C  MulP   1.9991  1.9991 sum   3.9982
    9    C  MulP   1.9979  1.9979 sum   3.9959
   10    C  MulP   1.9943  1.9943 sum   3.9886
   11    C  MulP   1.9798  1.9798 sum   3.9595
   12    C  MulP   1.9942  1.9942 sum   3.9885
   13    C  MulP   1.9979  1.9979 sum   3.9958
   14    C  MulP   1.9984  1.9984 sum   3.9969
   15    C  MulP   1.9996  1.9996 sum   3.9992
   16    C  MulP   1.9985  1.9985 sum   3.9969
   17    C  MulP   1.9989  1.9989 sum   3.9977
   18    C  MulP   1.9886  1.9886 sum   3.9771
   19    C  MulP   2.0369  2.0369 sum   4.0739
   20    C  MulP   2.0368  2.0368 sum   4.0735
     ..........
     ......

 Sum of MulP: up   =   232.00000 down          =   232.00000
              total=   464.00000 ideal(neutral)=   464.00000
<DFT>  Total Spin Moment (muB) =  0.000000000000
<DFT>  Mixing_weight= 0.300000000000
<DFT>  Uele   = -219.846582419402  dUele     =   0.587610059327
<DFT>  NormRD =    0.313983716635  Criterion =   0.000000010000

******************* MD= 1  SCF=13 *******************
<Poisson>  Poisson's equation using FFT...
<Set_Hamiltonian>  Hamiltonian matrix for VNA+dVH+Vxc...
<Band>  Solving the eigenvalue problem...
 KGrids1:  -0.43750  -0.31250  -0.18750  -0.06250   0.06250   0.18750   0.31250   0.43750 
 KGrids2:  -0.43750  -0.31250  -0.18750  -0.06250   0.06250   0.18750   0.31250   0.43750 
 KGrids3:   0.00000 
<Band_DFT>  Eigen, time=11.420184
<Band_DFT>  DM, time=0.000000
    1    C  MulP   1.9998  1.9998 sum   3.9995
    2    C  MulP   1.9991  1.9991 sum   3.9981
    3    C  MulP   1.9992  1.9992 sum   3.9985
    4    C  MulP   1.9996  1.9996 sum   3.9992
    5    C  MulP   1.9996  1.9996 sum   3.9991
    6    C  MulP   1.9993  1.9993 sum   3.9987
    7    C  MulP   1.9996  1.9996 sum   3.9991
    8    C  MulP   1.9993  1.9993 sum   3.9987
    9    C  MulP   1.9992  1.9992 sum   3.9983
   10    C  MulP   1.9946  1.9946 sum   3.9893
   11    C  MulP   1.9810  1.9810 sum   3.9620
   12    C  MulP   1.9946  1.9946 sum   3.9892
   13    C  MulP   1.9991  1.9991 sum   3.9983
   14    C  MulP   1.9996  1.9996 sum   3.9991
   15    C  MulP   1.9997  1.9997 sum   3.9994
   16    C  MulP   1.9996  1.9996 sum   3.9991
   17    C  MulP   1.9993  1.9993 sum   3.9986
   18    C  MulP   1.9899  1.9899 sum   3.9799
   19    C  MulP   2.0285  2.0285 sum   4.0570
   20    C  MulP   2.0283  2.0283 sum   4.0566
     ..........
     ......

 Sum of MulP: up   =   232.00000 down          =   232.00000
              total=   464.00000 ideal(neutral)=   464.00000
<DFT>  Total Spin Moment (muB) =  0.000000000000
<DFT>  Mixing_weight= 0.300000000000
<DFT>  Uele   = -220.374270757356  dUele     =   0.527688337954
<DFT>  NormRD =    0.221366207847  Criterion =   0.000000010000

******************* MD= 1  SCF=14 *******************
<Poisson>  Poisson's equation using FFT...
<Set_Hamiltonian>  Hamiltonian matrix for VNA+dVH+Vxc...
<Band>  Solving the eigenvalue problem...
 KGrids1:  -0.43750  -0.31250  -0.18750  -0.06250   0.06250   0.18750   0.31250   0.43750 
 KGrids2:  -0.43750  -0.31250  -0.18750  -0.06250   0.06250   0.18750   0.31250   0.43750 
 KGrids3:   0.00000 
<Band_DFT>  Eigen, time=11.421004
<Band_DFT>  DM, time=0.000000
    1    C  MulP   1.9986  1.9986 sum   3.9973
    2    C  MulP   1.9982  1.9982 sum   3.9963
    3    C  MulP   1.9984  1.9984 sum   3.9968
    4    C  MulP   1.9984  1.9984 sum   3.9968
    5    C  MulP   1.9994  1.9994 sum   3.9988
    6    C  MulP   1.9984  1.9984 sum   3.9969
    7    C  MulP   1.9986  1.9986 sum   3.9973
    8    C  MulP   1.9992  1.9992 sum   3.9984
    9    C  MulP   1.9981  1.9981 sum   3.9963
   10    C  MulP   1.9944  1.9944 sum   3.9887
   11    C  MulP   1.9800  1.9800 sum   3.9600
   12    C  MulP   1.9943  1.9943 sum   3.9887
   13    C  MulP   1.9981  1.9981 sum   3.9962
   14    C  MulP   1.9986  1.9986 sum   3.9973
   15    C  MulP   1.9997  1.9997 sum   3.9993
   16    C  MulP   1.9986  1.9986 sum   3.9973
   17    C  MulP   1.9990  1.9990 sum   3.9979
   18    C  MulP   1.9887  1.9887 sum   3.9774
   19    C  MulP   2.0355  2.0355 sum   4.0711
   20    C  MulP   2.0354  2.0354 sum   4.0707
     ..........
     ......

 Sum of MulP: up   =   232.00000 down          =   232.00000
              total=   464.00000 ideal(neutral)=   464.00000
<DFT>  Total Spin Moment (muB) =  0.000000000000
<DFT>  Mixing_weight= 0.300000000000
<DFT>  Uele   = -220.737039566652  dUele     =   0.362768809296
<DFT>  NormRD =    0.158681497930  Criterion =   0.000000010000

******************* MD= 1  SCF=15 *******************
<Poisson>  Poisson's equation using FFT...
<Set_Hamiltonian>  Hamiltonian matrix for VNA+dVH+Vxc...
<Band>  Solving the eigenvalue problem...
 KGrids1:  -0.43750  -0.31250  -0.18750  -0.06250   0.06250   0.18750   0.31250   0.43750 
 KGrids2:  -0.43750  -0.31250  -0.18750  -0.06250   0.06250   0.18750   0.31250   0.43750 
 KGrids3:   0.00000 
<Band_DFT>  Eigen, time=11.412868
<Band_DFT>  DM, time=0.000000
    1    C  MulP   1.9997  1.9997 sum   3.9993
    2    C  MulP   1.9990  1.9990 sum   3.9980
    3    C  MulP   1.9992  1.9992 sum   3.9983
    4    C  MulP   1.9995  1.9995 sum   3.9989
    5    C  MulP   1.9996  1.9996 sum   3.9992
    6    C  MulP   1.9993  1.9993 sum   3.9985
    7    C  MulP   1.9995  1.9995 sum   3.9990
    8    C  MulP   1.9994  1.9994 sum   3.9987
    9    C  MulP   1.9991  1.9991 sum   3.9982
   10    C  MulP   1.9946  1.9946 sum   3.9893
   11    C  MulP   1.9809  1.9809 sum   3.9619
   12    C  MulP   1.9946  1.9946 sum   3.9892
   13    C  MulP   1.9990  1.9990 sum   3.9981
   14    C  MulP   1.9995  1.9995 sum   3.9990
   15    C  MulP   1.9997  1.9997 sum   3.9995
   16    C  MulP   1.9995  1.9995 sum   3.9990
   17    C  MulP   1.9993  1.9993 sum   3.9986
   18    C  MulP   1.9898  1.9898 sum   3.9795
   19    C  MulP   2.0292  2.0292 sum   4.0583
   20    C  MulP   2.0290  2.0290 sum   4.0579
     ..........
     ......

 Sum of MulP: up   =   232.00000 down          =   232.00000
              total=   464.00000 ideal(neutral)=   464.00000
<DFT>  Total Spin Moment (muB) =  0.000000000000
<DFT>  Mixing_weight= 0.030000000000
<DFT>  Uele   = -221.086414785197  dUele     =   0.349375218544
<DFT>  NormRD =    0.115347668639  Criterion =   0.000000010000

******************* MD= 1  SCF=16 *******************
<Poisson>  Poisson's equation using FFT...
<Set_Hamiltonian>  Hamiltonian matrix for VNA+dVH+Vxc...
<Band>  Solving the eigenvalue problem...
 KGrids1:  -0.43750  -0.31250  -0.18750  -0.06250   0.06250   0.18750   0.31250   0.43750 
 KGrids2:  -0.43750  -0.31250  -0.18750  -0.06250   0.06250   0.18750   0.31250   0.43750 
 KGrids3:   0.00000 
<Band_DFT>  Eigen, time=11.432270
<Band_DFT>  DM, time=0.000000
    1    C  MulP   1.9969  1.9969 sum   3.9938
    2    C  MulP   1.9968  1.9968 sum   3.9936
    3    C  MulP   1.9971  1.9971 sum   3.9941
    4    C  MulP   1.9967  1.9967 sum   3.9933
    5    C  MulP   1.9988  1.9988 sum   3.9977
    6    C  MulP   1.9969  1.9969 sum   3.9938
    7    C  MulP   1.9971  1.9971 sum   3.9942
    8    C  MulP   1.9986  1.9986 sum   3.9973
    9    C  MulP   1.9967  1.9967 sum   3.9933
   10    C  MulP   1.9942  1.9942 sum   3.9883
   11    C  MulP   1.9792  1.9792 sum   3.9583
   12    C  MulP   1.9941  1.9941 sum   3.9882
   13    C  MulP   1.9966  1.9966 sum   3.9932
   14    C  MulP   1.9971  1.9971 sum   3.9942
   15    C  MulP   1.9992  1.9992 sum   3.9984
   16    C  MulP   1.9971  1.9971 sum   3.9942
   17    C  MulP   1.9983  1.9983 sum   3.9967
   18    C  MulP   1.9878  1.9878 sum   3.9756
   19    C  MulP   2.0452  2.0452 sum   4.0905
   20    C  MulP   2.0451  2.0451 sum   4.0902
     ..........
     ......

 Sum of MulP: up   =   232.00000 down          =   232.00000
              total=   464.00000 ideal(neutral)=   464.00000
<DFT>  Total Spin Moment (muB) =  0.000000000000
<DFT>  Mixing_weight= 0.030000000000
<DFT>  Uele   = -222.154391777534  dUele     =   1.067976992337
<DFT>  NormRD =    0.205613890714  Criterion =   0.000000010000

******************* MD= 1  SCF=17 *******************
<Poisson>  Poisson's equation using FFT...
<Set_Hamiltonian>  Hamiltonian matrix for VNA+dVH+Vxc...
<Band>  Solving the eigenvalue problem...
 KGrids1:  -0.43750  -0.31250  -0.18750  -0.06250   0.06250   0.18750   0.31250   0.43750 
 KGrids2:  -0.43750  -0.31250  -0.18750  -0.06250   0.06250   0.18750   0.31250   0.43750 
 KGrids3:   0.00000 
<Band_DFT>  Eigen, time=11.418429
<Band_DFT>  DM, time=0.000000
    1    C  MulP   2.0001  2.0001 sum   4.0002
    2    C  MulP   1.9993  1.9993 sum   3.9986
    3    C  MulP   1.9995  1.9995 sum   3.9990
    4    C  MulP   1.9999  1.9999 sum   3.9998
    5    C  MulP   2.0001  2.0001 sum   4.0003
    6    C  MulP   1.9998  1.9998 sum   3.9996
    7    C  MulP   2.0000  2.0000 sum   4.0000
    8    C  MulP   1.9999  1.9999 sum   3.9999
    9    C  MulP   1.9993  1.9993 sum   3.9986
   10    C  MulP   1.9945  1.9945 sum   3.9889
   11    C  MulP   1.9803  1.9803 sum   3.9606
   12    C  MulP   1.9944  1.9944 sum   3.9888
   13    C  MulP   1.9992  1.9992 sum   3.9985
   14    C  MulP   2.0000  2.0000 sum   4.0000
   15    C  MulP   2.0003  2.0003 sum   4.0007
   16    C  MulP   2.0000  2.0000 sum   4.0000
   17    C  MulP   1.9995  1.9995 sum   3.9990
   18    C  MulP   1.9891  1.9891 sum   3.9781
   19    C  MulP   2.0277  2.0277 sum   4.0553
   20    C  MulP   2.0275  2.0275 sum   4.0550
     ..........
     ......

 Sum of MulP: up   =   232.00000 down          =   232.00000
              total=   464.00000 ideal(neutral)=   464.00000
<DFT>  Total Spin Moment (muB) =  0.000000000000
<DFT>  Mixing_weight= 0.030000000000
<DFT>  Uele   = -223.012871187235  dUele     =   0.858479409702
<DFT>  NormRD =    0.064222141951  Criterion =   0.000000010000

******************* MD= 1  SCF=18 *******************
<Poisson>  Poisson's equation using FFT...
<Set_Hamiltonian>  Hamiltonian matrix for VNA+dVH+Vxc...
<Band>  Solving the eigenvalue problem...
 KGrids1:  -0.43750  -0.31250  -0.18750  -0.06250   0.06250   0.18750   0.31250   0.43750 
 KGrids2:  -0.43750  -0.31250  -0.18750  -0.06250   0.06250   0.18750   0.31250   0.43750 
 KGrids3:   0.00000 
<Band_DFT>  Eigen, time=11.417541
<Band_DFT>  DM, time=0.000000
    1    C  MulP   1.9992  1.9992 sum   3.9984
    2    C  MulP   1.9987  1.9987 sum   3.9973
    3    C  MulP   1.9989  1.9989 sum   3.9978
    4    C  MulP   1.9990  1.9990 sum   3.9980
    5    C  MulP   1.9993  1.9993 sum   3.9987
    6    C  MulP   1.9988  1.9988 sum   3.9976
    7    C  MulP   1.9990  1.9990 sum   3.9981
    8    C  MulP   1.9991  1.9991 sum   3.9983
    9    C  MulP   1.9988  1.9988 sum   3.9977
   10    C  MulP   1.9948  1.9948 sum   3.9895
   11    C  MulP   1.9811  1.9811 sum   3.9623
   12    C  MulP   1.9947  1.9947 sum   3.9894
   13    C  MulP   1.9988  1.9988 sum   3.9976
   14    C  MulP   1.9990  1.9990 sum   3.9981
   15    C  MulP   1.9995  1.9995 sum   3.9990
   16    C  MulP   1.9990  1.9990 sum   3.9981
   17    C  MulP   1.9993  1.9993 sum   3.9985
   18    C  MulP   1.9896  1.9896 sum   3.9793
   19    C  MulP   2.0313  2.0313 sum   4.0625
   20    C  MulP   2.0310  2.0310 sum   4.0620
     ..........
     ......

 Sum of MulP: up   =   232.00000 down          =   232.00000
              total=   464.00000 ideal(neutral)=   464.00000
<DFT>  Total Spin Moment (muB) =  0.000000000000
<DFT>  Mixing_weight= 0.030000000000
<DFT>  Uele   = -223.100047788640  dUele     =   0.087176601404
<DFT>  NormRD =    0.012096119659  Criterion =   0.000000010000

******************* MD= 1  SCF=19 *******************
<Poisson>  Poisson's equation using FFT...
<Set_Hamiltonian>  Hamiltonian matrix for VNA+dVH+Vxc...
<Band>  Solving the eigenvalue problem...
 KGrids1:  -0.43750  -0.31250  -0.18750  -0.06250   0.06250   0.18750   0.31250   0.43750 
 KGrids2:  -0.43750  -0.31250  -0.18750  -0.06250   0.06250   0.18750   0.31250   0.43750 
 KGrids3:   0.00000 
<Band_DFT>  Eigen, time=11.410384
<Band_DFT>  DM, time=0.000000
    1    C  MulP   1.9991  1.9991 sum   3.9983
    2    C  MulP   1.9985  1.9985 sum   3.9971
    3    C  MulP   1.9988  1.9988 sum   3.9975
    4    C  MulP   1.9989  1.9989 sum   3.9979
    5    C  MulP   1.9995  1.9995 sum   3.9991
    6    C  MulP   1.9989  1.9989 sum   3.9978
    7    C  MulP   1.9991  1.9991 sum   3.9982
    8    C  MulP   1.9993  1.9993 sum   3.9987
    9    C  MulP   1.9986  1.9986 sum   3.9971
   10    C  MulP   1.9945  1.9945 sum   3.9889
   11    C  MulP   1.9805  1.9805 sum   3.9610
   12    C  MulP   1.9944  1.9944 sum   3.9889
   13    C  MulP   1.9985  1.9985 sum   3.9971
   14    C  MulP   1.9991  1.9991 sum   3.9982
   15    C  MulP   1.9998  1.9998 sum   3.9997
   16    C  MulP   1.9991  1.9991 sum   3.9982
   17    C  MulP   1.9991  1.9991 sum   3.9982
   18    C  MulP   1.9892  1.9892 sum   3.9784
   19    C  MulP   2.0322  2.0322 sum   4.0643
   20    C  MulP   2.0322  2.0322 sum   4.0643
     ..........
     ......

 Sum of MulP: up   =   232.00000 down          =   232.00000
              total=   464.00000 ideal(neutral)=   464.00000
<DFT>  Total Spin Moment (muB) =  0.000000000000
<DFT>  Mixing_weight= 0.030000000000
<DFT>  Uele   = -223.113025102701  dUele     =   0.012977314061
<DFT>  NormRD =    0.009527684219  Criterion =   0.000000010000

******************* MD= 1  SCF=20 *******************
<Poisson>  Poisson's equation using FFT...
<Set_Hamiltonian>  Hamiltonian matrix for VNA+dVH+Vxc...
<Band>  Solving the eigenvalue problem...
 KGrids1:  -0.43750  -0.31250  -0.18750  -0.06250   0.06250   0.18750   0.31250   0.43750 
 KGrids2:  -0.43750  -0.31250  -0.18750  -0.06250   0.06250   0.18750   0.31250   0.43750 
 KGrids3:   0.00000 
<Band_DFT>  Eigen, time=11.435324
<Band_DFT>  DM, time=0.000000
    1    C  MulP   1.9993  1.9993 sum   3.9985
    2    C  MulP   1.9987  1.9987 sum   3.9974
    3    C  MulP   1.9989  1.9989 sum   3.9978
    4    C  MulP   1.9990  1.9990 sum   3.9981
    5    C  MulP   1.9996  1.9996 sum   3.9992
    6    C  MulP   1.9989  1.9989 sum   3.9978
    7    C  MulP   1.9991  1.9991 sum   3.9982
    8    C  MulP   1.9994  1.9994 sum   3.9988
    9    C  MulP   1.9988  1.9988 sum   3.9975
   10    C  MulP   1.9946  1.9946 sum   3.9892
   11    C  MulP   1.9806  1.9806 sum   3.9611
   12    C  MulP   1.9946  1.9946 sum   3.9891
   13    C  MulP   1.9987  1.9987 sum   3.9974
   14    C  MulP   1.9991  1.9991 sum   3.9982
   15    C  MulP   1.9997  1.9997 sum   3.9994
   16    C  MulP   1.9991  1.9991 sum   3.9982
   17    C  MulP   1.9993  1.9993 sum   3.9985
   18    C  MulP   1.9893  1.9893 sum   3.9785
   19    C  MulP   2.0320  2.0320 sum   4.0639
   20    C  MulP   2.0313  2.0313 sum   4.0626
     ..........
     ......

 Sum of MulP: up   =   232.00000 down          =   232.00000
              total=   464.00000 ideal(neutral)=   464.00000
<DFT>  Total Spin Moment (muB) =  0.000000000000
<DFT>  Mixing_weight= 0.030000000000
<DFT>  Uele   = -223.143871490036  dUele     =   0.030846387335
<DFT>  NormRD =    0.003406261327  Criterion =   0.000000010000

******************* MD= 1  SCF=21 *******************
<Poisson>  Poisson's equation using FFT...
<Set_Hamiltonian>  Hamiltonian matrix for VNA+dVH+Vxc...
<Band>  Solving the eigenvalue problem...
 KGrids1:  -0.43750  -0.31250  -0.18750  -0.06250   0.06250   0.18750   0.31250   0.43750 
 KGrids2:  -0.43750  -0.31250  -0.18750  -0.06250   0.06250   0.18750   0.31250   0.43750 
 KGrids3:   0.00000 
<Band_DFT>  Eigen, time=11.415374
<Band_DFT>  DM, time=0.000000
    1    C  MulP   1.9992  1.9992 sum   3.9985
    2    C  MulP   1.9987  1.9987 sum   3.9973
    3    C  MulP   1.9989  1.9989 sum   3.9978
    4    C  MulP   1.9990  1.9990 sum   3.9981
    5    C  MulP   1.9996  1.9996 sum   3.9991
    6    C  MulP   1.9989  1.9989 sum   3.9979
    7    C  MulP   1.9992  1.9992 sum   3.9983
    8    C  MulP   1.9993  1.9993 sum   3.9987
    9    C  MulP   1.9987  1.9987 sum   3.9974
   10    C  MulP   1.9946  1.9946 sum   3.9891
   11    C  MulP   1.9806  1.9806 sum   3.9612
   12    C  MulP   1.9946  1.9946 sum   3.9891
   13    C  MulP   1.9987  1.9987 sum   3.9974
   14    C  MulP   1.9992  1.9992 sum   3.9983
   15    C  MulP   1.9998  1.9998 sum   3.9995
   16    C  MulP   1.9992  1.9992 sum   3.9983
   17    C  MulP   1.9992  1.9992 sum   3.9984
   18    C  MulP   1.9892  1.9892 sum   3.9784
   19    C  MulP   2.0313  2.0313 sum   4.0627
   20    C  MulP   2.0315  2.0315 sum   4.0630
     ..........
     ......

 Sum of MulP: up   =   232.00000 down          =   232.00000
              total=   464.00000 ideal(neutral)=   464.00000
<DFT>  Total Spin Moment (muB) =  0.000000000000
<DFT>  Mixing_weight= 0.030000000000
<DFT>  Uele   = -223.154386567883  dUele     =   0.010515077848
<DFT>  NormRD =    0.002416935411  Criterion =   0.000000010000

******************* MD= 1  SCF=22 *******************
<Poisson>  Poisson's equation using FFT...
<Set_Hamiltonian>  Hamiltonian matrix for VNA+dVH+Vxc...
<Band>  Solving the eigenvalue problem...
 KGrids1:  -0.43750  -0.31250  -0.18750  -0.06250   0.06250   0.18750   0.31250   0.43750 
 KGrids2:  -0.43750  -0.31250  -0.18750  -0.06250   0.06250   0.18750   0.31250   0.43750 
 KGrids3:   0.00000 
<Band_DFT>  Eigen, time=11.422958
<Band_DFT>  DM, time=0.000001
    1    C  MulP   1.9992  1.9992 sum   3.9985
    2    C  MulP   1.9987  1.9987 sum   3.9973
    3    C  MulP   1.9989  1.9989 sum   3.9977
    4    C  MulP   1.9990  1.9990 sum   3.9981
    5    C  MulP   1.9996  1.9996 sum   3.9991
    6    C  MulP   1.9990  1.9990 sum   3.9979
    7    C  MulP   1.9992  1.9992 sum   3.9984
    8    C  MulP   1.9993  1.9993 sum   3.9987
    9    C  MulP   1.9987  1.9987 sum   3.9974
   10    C  MulP   1.9946  1.9946 sum   3.9891
   11    C  MulP   1.9806  1.9806 sum   3.9613
   12    C  MulP   1.9945  1.9945 sum   3.9890
   13    C  MulP   1.9987  1.9987 sum   3.9973
   14    C  MulP   1.9992  1.9992 sum   3.9984
   15    C  MulP   1.9998  1.9998 sum   3.9996
   16    C  MulP   1.9992  1.9992 sum   3.9984
   17    C  MulP   1.9992  1.9992 sum   3.9984
   18    C  MulP   1.9893  1.9893 sum   3.9786
   19    C  MulP   2.0316  2.0316 sum   4.0633
   20    C  MulP   2.0314  2.0314 sum   4.0627
     ..........
     ......

 Sum of MulP: up   =   232.00000 down          =   232.00000
              total=   464.00000 ideal(neutral)=   464.00000
<DFT>  Total Spin Moment (muB) =  0.000000000000
<DFT>  Mixing_weight= 0.030000000000
<DFT>  Uele   = -223.160746454420  dUele     =   0.006359886536
<DFT>  NormRD =    0.001013269101  Criterion =   0.000000010000

******************* MD= 1  SCF=23 *******************
<Poisson>  Poisson's equation using FFT...
<Set_Hamiltonian>  Hamiltonian matrix for VNA+dVH+Vxc...
<Band>  Solving the eigenvalue problem...
 KGrids1:  -0.43750  -0.31250  -0.18750  -0.06250   0.06250   0.18750   0.31250   0.43750 
 KGrids2:  -0.43750  -0.31250  -0.18750  -0.06250   0.06250   0.18750   0.31250   0.43750 
 KGrids3:   0.00000 
<Band_DFT>  Eigen, time=11.419006
<Band_DFT>  DM, time=0.000001
    1    C  MulP   1.9993  1.9993 sum   3.9985
    2    C  MulP   1.9987  1.9987 sum   3.9973
    3    C  MulP   1.9989  1.9989 sum   3.9977
    4    C  MulP   1.9991  1.9991 sum   3.9981
    5    C  MulP   1.9996  1.9996 sum   3.9992
    6    C  MulP   1.9989  1.9989 sum   3.9979
    7    C  MulP   1.9992  1.9992 sum   3.9983
    8    C  MulP   1.9994  1.9994 sum   3.9987
    9    C  MulP   1.9987  1.9987 sum   3.9974
   10    C  MulP   1.9946  1.9946 sum   3.9891
   11    C  MulP   1.9806  1.9806 sum   3.9612
   12    C  MulP   1.9945  1.9945 sum   3.9890
   13    C  MulP   1.9987  1.9987 sum   3.9974
   14    C  MulP   1.9992  1.9992 sum   3.9983
   15    C  MulP   1.9998  1.9998 sum   3.9995
   16    C  MulP   1.9992  1.9992 sum   3.9983
   17    C  MulP   1.9992  1.9992 sum   3.9984
   18    C  MulP   1.9893  1.9893 sum   3.9785
   19    C  MulP   2.0316  2.0316 sum   4.0632
   20    C  MulP   2.0314  2.0314 sum   4.0628
     ..........
     ......

 Sum of MulP: up   =   232.00000 down          =   232.00000
              total=   464.00000 ideal(neutral)=   464.00000
<DFT>  Total Spin Moment (muB) =  0.000000000000
<DFT>  Mixing_weight= 0.030000000000
<DFT>  Uele   = -223.165192729073  dUele     =   0.004446274654
<DFT>  NormRD =    0.000307755686  Criterion =   0.000000010000

******************* MD= 1  SCF=24 *******************
<Poisson>  Poisson's equation using FFT...
<Set_Hamiltonian>  Hamiltonian matrix for VNA+dVH+Vxc...
<Band>  Solving the eigenvalue problem...
 KGrids1:  -0.43750  -0.31250  -0.18750  -0.06250   0.06250   0.18750   0.31250   0.43750 
 KGrids2:  -0.43750  -0.31250  -0.18750  -0.06250   0.06250   0.18750   0.31250   0.43750 
 KGrids3:   0.00000 
<Band_DFT>  Eigen, time=11.418556
<Band_DFT>  DM, time=0.000001
    1    C  MulP   1.9992  1.9992 sum   3.9985
    2    C  MulP   1.9987  1.9987 sum   3.9973
    3    C  MulP   1.9989  1.9989 sum   3.9978
    4    C  MulP   1.9990  1.9990 sum   3.9981
    5    C  MulP   1.9996  1.9996 sum   3.9991
    6    C  MulP   1.9989  1.9989 sum   3.9979
    7    C  MulP   1.9992  1.9992 sum   3.9983
    8    C  MulP   1.9994  1.9994 sum   3.9987
    9    C  MulP   1.9987  1.9987 sum   3.9974
   10    C  MulP   1.9946  1.9946 sum   3.9891
   11    C  MulP   1.9806  1.9806 sum   3.9612
   12    C  MulP   1.9945  1.9945 sum   3.9891
   13    C  MulP   1.9987  1.9987 sum   3.9973
   14    C  MulP   1.9992  1.9992 sum   3.9983
   15    C  MulP   1.9998  1.9998 sum   3.9995
   16    C  MulP   1.9992  1.9992 sum   3.9983
   17    C  MulP   1.9992  1.9992 sum   3.9984
   18    C  MulP   1.9893  1.9893 sum   3.9785
   19    C  MulP   2.0316  2.0316 sum   4.0632
   20    C  MulP   2.0314  2.0314 sum   4.0628
     ..........
     ......

 Sum of MulP: up   =   232.00000 down          =   232.00000
              total=   464.00000 ideal(neutral)=   464.00000
<DFT>  Total Spin Moment (muB) =  0.000000000000
<DFT>  Mixing_weight= 0.030000000000
<DFT>  Uele   = -223.166499043647  dUele     =   0.001306314574
<DFT>  NormRD =    0.000081233485  Criterion =   0.000000010000

******************* MD= 1  SCF=25 *******************
<Poisson>  Poisson's equation using FFT...
<Set_Hamiltonian>  Hamiltonian matrix for VNA+dVH+Vxc...
<Band>  Solving the eigenvalue problem...
 KGrids1:  -0.43750  -0.31250  -0.18750  -0.06250   0.06250   0.18750   0.31250   0.43750 
 KGrids2:  -0.43750  -0.31250  -0.18750  -0.06250   0.06250   0.18750   0.31250   0.43750 
 KGrids3:   0.00000 
<Band_DFT>  Eigen, time=11.429014
<Band_DFT>  DM, time=0.000001
    1    C  MulP   1.9992  1.9992 sum   3.9985
    2    C  MulP   1.9987  1.9987 sum   3.9973
    3    C  MulP   1.9989  1.9989 sum   3.9977
    4    C  MulP   1.9990  1.9990 sum   3.9981
    5    C  MulP   1.9996  1.9996 sum   3.9991
    6    C  MulP   1.9989  1.9989 sum   3.9979
    7    C  MulP   1.9992  1.9992 sum   3.9983
    8    C  MulP   1.9994  1.9994 sum   3.9987
    9    C  MulP   1.9987  1.9987 sum   3.9974
   10    C  MulP   1.9946  1.9946 sum   3.9891
   11    C  MulP   1.9806  1.9806 sum   3.9612
   12    C  MulP   1.9945  1.9945 sum   3.9891
   13    C  MulP   1.9987  1.9987 sum   3.9973
   14    C  MulP   1.9992  1.9992 sum   3.9983
   15    C  MulP   1.9998  1.9998 sum   3.9996
   16    C  MulP   1.9992  1.9992 sum   3.9983
   17    C  MulP   1.9992  1.9992 sum   3.9984
   18    C  MulP   1.9893  1.9893 sum   3.9785
   19    C  MulP   2.0316  2.0316 sum   4.0632
   20    C  MulP   2.0314  2.0314 sum   4.0629
     ..........
     ......

 Sum of MulP: up   =   232.00000 down          =   232.00000
              total=   464.00000 ideal(neutral)=   464.00000
<DFT>  Total Spin Moment (muB) =  0.000000000000
<DFT>  Mixing_weight= 0.030000000000
<DFT>  Uele   = -223.167312967096  dUele     =   0.000813923450
<DFT>  NormRD =    0.000052207014  Criterion =   0.000000010000

******************* MD= 1  SCF=26 *******************
<Poisson>  Poisson's equation using FFT...
<Set_Hamiltonian>  Hamiltonian matrix for VNA+dVH+Vxc...
<Band>  Solving the eigenvalue problem...
 KGrids1:  -0.43750  -0.31250  -0.18750  -0.06250   0.06250   0.18750   0.31250   0.43750 
 KGrids2:  -0.43750  -0.31250  -0.18750  -0.06250   0.06250   0.18750   0.31250   0.43750 
 KGrids3:   0.00000 
<Band_DFT>  Eigen, time=11.421335
<Band_DFT>  DM, time=0.000000
    1    C  MulP   1.9992  1.9992 sum   3.9985
    2    C  MulP   1.9987  1.9987 sum   3.9973
    3    C  MulP   1.9989  1.9989 sum   3.9978
    4    C  MulP   1.9990  1.9990 sum   3.9981
    5    C  MulP   1.9996  1.9996 sum   3.9991
    6    C  MulP   1.9989  1.9989 sum   3.9979
    7    C  MulP   1.9992  1.9992 sum   3.9983
    8    C  MulP   1.9994  1.9994 sum   3.9987
    9    C  MulP   1.9987  1.9987 sum   3.9974
   10    C  MulP   1.9946  1.9946 sum   3.9891
   11    C  MulP   1.9806  1.9806 sum   3.9612
   12    C  MulP   1.9945  1.9945 sum   3.9891
   13    C  MulP   1.9987  1.9987 sum   3.9973
   14    C  MulP   1.9992  1.9992 sum   3.9983
   15    C  MulP   1.9998  1.9998 sum   3.9995
   16    C  MulP   1.9992  1.9992 sum   3.9983
   17    C  MulP   1.9992  1.9992 sum   3.9984
   18    C  MulP   1.9893  1.9893 sum   3.9785
   19    C  MulP   2.0316  2.0316 sum   4.0632
   20    C  MulP   2.0314  2.0314 sum   4.0629
     ..........
     ......

 Sum of MulP: up   =   232.00000 down          =   232.00000
              total=   464.00000 ideal(neutral)=   464.00000
<DFT>  Total Spin Moment (muB) =  0.000000000000
<DFT>  Mixing_weight= 0.030000000000
<DFT>  Uele   = -223.167661416588  dUele     =   0.000348449492
<DFT>  NormRD =    0.000024419587  Criterion =   0.000000010000

******************* MD= 1  SCF=27 *******************
<Poisson>  Poisson's equation using FFT...
<Set_Hamiltonian>  Hamiltonian matrix for VNA+dVH+Vxc...
<Band>  Solving the eigenvalue problem...
 KGrids1:  -0.43750  -0.31250  -0.18750  -0.06250   0.06250   0.18750   0.31250   0.43750 
 KGrids2:  -0.43750  -0.31250  -0.18750  -0.06250   0.06250   0.18750   0.31250   0.43750 
 KGrids3:   0.00000 
<Band_DFT>  Eigen, time=11.426869
<Band_DFT>  DM, time=0.000000
    1    C  MulP   1.9992  1.9992 sum   3.9985
    2    C  MulP   1.9987  1.9987 sum   3.9973
    3    C  MulP   1.9989  1.9989 sum   3.9978
    4    C  MulP   1.9990  1.9990 sum   3.9981
    5    C  MulP   1.9996  1.9996 sum   3.9991
    6    C  MulP   1.9989  1.9989 sum   3.9979
    7    C  MulP   1.9992  1.9992 sum   3.9983
    8    C  MulP   1.9994  1.9994 sum   3.9987
    9    C  MulP   1.9987  1.9987 sum   3.9974
   10    C  MulP   1.9946  1.9946 sum   3.9891
   11    C  MulP   1.9806  1.9806 sum   3.9612
   12    C  MulP   1.9945  1.9945 sum   3.9891
   13    C  MulP   1.9987  1.9987 sum   3.9974
   14    C  MulP   1.9992  1.9992 sum   3.9983
   15    C  MulP   1.9998  1.9998 sum   3.9995
   16    C  MulP   1.9992  1.9992 sum   3.9983
   17    C  MulP   1.9992  1.9992 sum   3.9984
   18    C  MulP   1.9893  1.9893 sum   3.9785
   19    C  MulP   2.0316  2.0316 sum   4.0632
   20    C  MulP   2.0314  2.0314 sum   4.0628
     ..........
     ......

 Sum of MulP: up   =   232.00000 down          =   232.00000
              total=   464.00000 ideal(neutral)=   464.00000
<DFT>  Total Spin Moment (muB) =  0.000000000000
<DFT>  Mixing_weight= 0.030000000000
<DFT>  Uele   = -223.167799630979  dUele     =   0.000138214390
<DFT>  NormRD =    0.000015592036  Criterion =   0.000000010000

******************* MD= 1  SCF=28 *******************
<Poisson>  Poisson's equation using FFT...
<Set_Hamiltonian>  Hamiltonian matrix for VNA+dVH+Vxc...
<Band>  Solving the eigenvalue problem...
 KGrids1:  -0.43750  -0.31250  -0.18750  -0.06250   0.06250   0.18750   0.31250   0.43750 
 KGrids2:  -0.43750  -0.31250  -0.18750  -0.06250   0.06250   0.18750   0.31250   0.43750 
 KGrids3:   0.00000 
<Band_DFT>  Eigen, time=11.421920
<Band_DFT>  DM, time=0.000001
    1    C  MulP   1.9992  1.9992 sum   3.9985
    2    C  MulP   1.9987  1.9987 sum   3.9973
    3    C  MulP   1.9989  1.9989 sum   3.9978
    4    C  MulP   1.9990  1.9990 sum   3.9981
    5    C  MulP   1.9996  1.9996 sum   3.9991
    6    C  MulP   1.9989  1.9989 sum   3.9979
    7    C  MulP   1.9992  1.9992 sum   3.9983
    8    C  MulP   1.9994  1.9994 sum   3.9987
    9    C  MulP   1.9987  1.9987 sum   3.9974
   10    C  MulP   1.9946  1.9946 sum   3.9891
   11    C  MulP   1.9806  1.9806 sum   3.9612
   12    C  MulP   1.9945  1.9945 sum   3.9891
   13    C  MulP   1.9987  1.9987 sum   3.9974
   14    C  MulP   1.9992  1.9992 sum   3.9983
   15    C  MulP   1.9998  1.9998 sum   3.9995
   16    C  MulP   1.9992  1.9992 sum   3.9983
   17    C  MulP   1.9992  1.9992 sum   3.9984
   18    C  MulP   1.9893  1.9893 sum   3.9785
   19    C  MulP   2.0316  2.0316 sum   4.0632
   20    C  MulP   2.0314  2.0314 sum   4.0628
     ..........
     ......

 Sum of MulP: up   =   232.00000 down          =   232.00000
              total=   464.00000 ideal(neutral)=   464.00000
<DFT>  Total Spin Moment (muB) =  0.000000000000
<DFT>  Mixing_weight= 0.030000000000
<DFT>  Uele   = -223.167877347475  dUele     =   0.000077716496
<DFT>  NormRD =    0.000007863148  Criterion =   0.000000010000

******************* MD= 1  SCF=29 *******************
<Poisson>  Poisson's equation using FFT...
<Set_Hamiltonian>  Hamiltonian matrix for VNA+dVH+Vxc...
<Band>  Solving the eigenvalue problem...
 KGrids1:  -0.43750  -0.31250  -0.18750  -0.06250   0.06250   0.18750   0.31250   0.43750 
 KGrids2:  -0.43750  -0.31250  -0.18750  -0.06250   0.06250   0.18750   0.31250   0.43750 
 KGrids3:   0.00000 
<Band_DFT>  Eigen, time=11.422556
<Band_DFT>  DM, time=0.000001
    1    C  MulP   1.9992  1.9992 sum   3.9985
    2    C  MulP   1.9987  1.9987 sum   3.9973
    3    C  MulP   1.9989  1.9989 sum   3.9978
    4    C  MulP   1.9990  1.9990 sum   3.9981
    5    C  MulP   1.9996  1.9996 sum   3.9991
    6    C  MulP   1.9989  1.9989 sum   3.9979
    7    C  MulP   1.9992  1.9992 sum   3.9983
    8    C  MulP   1.9994  1.9994 sum   3.9987
    9    C  MulP   1.9987  1.9987 sum   3.9974
   10    C  MulP   1.9946  1.9946 sum   3.9891
   11    C  MulP   1.9806  1.9806 sum   3.9612
   12    C  MulP   1.9945  1.9945 sum   3.9891
   13    C  MulP   1.9987  1.9987 sum   3.9974
   14    C  MulP   1.9992  1.9992 sum   3.9983
   15    C  MulP   1.9998  1.9998 sum   3.9995
   16    C  MulP   1.9992  1.9992 sum   3.9983
   17    C  MulP   1.9992  1.9992 sum   3.9984
   18    C  MulP   1.9893  1.9893 sum   3.9785
   19    C  MulP   2.0316  2.0316 sum   4.0632
   20    C  MulP   2.0314  2.0314 sum   4.0628
     ..........
     ......

 Sum of MulP: up   =   232.00000 down          =   232.00000
              total=   464.00000 ideal(neutral)=   464.00000
<DFT>  Total Spin Moment (muB) =  0.000000000000
<DFT>  Mixing_weight= 0.030000000000
<DFT>  Uele   = -223.167911332003  dUele     =   0.000033984528
<DFT>  NormRD =    0.000005357015  Criterion =   0.000000010000

******************* MD= 1  SCF=30 *******************
<Poisson>  Poisson's equation using FFT...
<Set_Hamiltonian>  Hamiltonian matrix for VNA+dVH+Vxc...
<Band>  Solving the eigenvalue problem...
 KGrids1:  -0.43750  -0.31250  -0.18750  -0.06250   0.06250   0.18750   0.31250   0.43750 
 KGrids2:  -0.43750  -0.31250  -0.18750  -0.06250   0.06250   0.18750   0.31250   0.43750 
 KGrids3:   0.00000 
<Band_DFT>  Eigen, time=11.411558
<Band_DFT>  DM, time=0.000000
    1    C  MulP   1.9992  1.9992 sum   3.9985
    2    C  MulP   1.9987  1.9987 sum   3.9973
    3    C  MulP   1.9989  1.9989 sum   3.9978
    4    C  MulP   1.9990  1.9990 sum   3.9981
    5    C  MulP   1.9996  1.9996 sum   3.9991
    6    C  MulP   1.9989  1.9989 sum   3.9979
    7    C  MulP   1.9992  1.9992 sum   3.9983
    8    C  MulP   1.9994  1.9994 sum   3.9987
    9    C  MulP   1.9987  1.9987 sum   3.9974
   10    C  MulP   1.9946  1.9946 sum   3.9891
   11    C  MulP   1.9806  1.9806 sum   3.9612
   12    C  MulP   1.9945  1.9945 sum   3.9891
   13    C  MulP   1.9987  1.9987 sum   3.9974
   14    C  MulP   1.9992  1.9992 sum   3.9983
   15    C  MulP   1.9998  1.9998 sum   3.9995
   16    C  MulP   1.9992  1.9992 sum   3.9983
   17    C  MulP   1.9992  1.9992 sum   3.9984
   18    C  MulP   1.9893  1.9893 sum   3.9785
   19    C  MulP   2.0316  2.0316 sum   4.0632
   20    C  MulP   2.0314  2.0314 sum   4.0628
     ..........
     ......

 Sum of MulP: up   =   232.00000 down          =   232.00000
              total=   464.00000 ideal(neutral)=   464.00000
<DFT>  Total Spin Moment (muB) =  0.000000000000
<DFT>  Mixing_weight= 0.030000000000
<DFT>  Uele   = -223.167943871133  dUele     =   0.000032539130
<DFT>  NormRD =    0.000002066247  Criterion =   0.000000010000

******************* MD= 1  SCF=31 *******************
<Poisson>  Poisson's equation using FFT...
<Set_Hamiltonian>  Hamiltonian matrix for VNA+dVH+Vxc...
<Band>  Solving the eigenvalue problem...
 KGrids1:  -0.43750  -0.31250  -0.18750  -0.06250   0.06250   0.18750   0.31250   0.43750 
 KGrids2:  -0.43750  -0.31250  -0.18750  -0.06250   0.06250   0.18750   0.31250   0.43750 
 KGrids3:   0.00000 
<Band_DFT>  Eigen, time=11.422620
<Band_DFT>  DM, time=0.000000
    1    C  MulP   1.9992  1.9992 sum   3.9985
    2    C  MulP   1.9987  1.9987 sum   3.9973
    3    C  MulP   1.9989  1.9989 sum   3.9978
    4    C  MulP   1.9990  1.9990 sum   3.9981
    5    C  MulP   1.9996  1.9996 sum   3.9991
    6    C  MulP   1.9989  1.9989 sum   3.9979
    7    C  MulP   1.9992  1.9992 sum   3.9983
    8    C  MulP   1.9994  1.9994 sum   3.9987
    9    C  MulP   1.9987  1.9987 sum   3.9974
   10    C  MulP   1.9946  1.9946 sum   3.9891
   11    C  MulP   1.9806  1.9806 sum   3.9612
   12    C  MulP   1.9945  1.9945 sum   3.9891
   13    C  MulP   1.9987  1.9987 sum   3.9974
   14    C  MulP   1.9992  1.9992 sum   3.9983
   15    C  MulP   1.9998  1.9998 sum   3.9995
   16    C  MulP   1.9992  1.9992 sum   3.9983
   17    C  MulP   1.9992  1.9992 sum   3.9984
   18    C  MulP   1.9893  1.9893 sum   3.9785
   19    C  MulP   2.0316  2.0316 sum   4.0632
   20    C  MulP   2.0314  2.0314 sum   4.0628
     ..........
     ......

 Sum of MulP: up   =   232.00000 down          =   232.00000
              total=   464.00000 ideal(neutral)=   464.00000
<DFT>  Total Spin Moment (muB) =  0.000000000000
<DFT>  Mixing_weight= 0.030000000000
<DFT>  Uele   = -223.167963559851  dUele     =   0.000019688719
<DFT>  NormRD =    0.000001030198  Criterion =   0.000000010000

******************* MD= 1  SCF=32 *******************
<Poisson>  Poisson's equation using FFT...
<Set_Hamiltonian>  Hamiltonian matrix for VNA+dVH+Vxc...
<Band>  Solving the eigenvalue problem...
 KGrids1:  -0.43750  -0.31250  -0.18750  -0.06250   0.06250   0.18750   0.31250   0.43750 
 KGrids2:  -0.43750  -0.31250  -0.18750  -0.06250   0.06250   0.18750   0.31250   0.43750 
 KGrids3:   0.00000 
<Band_DFT>  Eigen, time=11.424083
<Band_DFT>  DM, time=0.000001
    1    C  MulP   1.9992  1.9992 sum   3.9985
    2    C  MulP   1.9987  1.9987 sum   3.9973
    3    C  MulP   1.9989  1.9989 sum   3.9978
    4    C  MulP   1.9990  1.9990 sum   3.9981
    5    C  MulP   1.9996  1.9996 sum   3.9991
    6    C  MulP   1.9989  1.9989 sum   3.9979
    7    C  MulP   1.9992  1.9992 sum   3.9983
    8    C  MulP   1.9994  1.9994 sum   3.9987
    9    C  MulP   1.9987  1.9987 sum   3.9974
   10    C  MulP   1.9946  1.9946 sum   3.9891
   11    C  MulP   1.9806  1.9806 sum   3.9612
   12    C  MulP   1.9945  1.9945 sum   3.9891
   13    C  MulP   1.9987  1.9987 sum   3.9974
   14    C  MulP   1.9992  1.9992 sum   3.9983
   15    C  MulP   1.9998  1.9998 sum   3.9995
   16    C  MulP   1.9992  1.9992 sum   3.9983
   17    C  MulP   1.9992  1.9992 sum   3.9984
   18    C  MulP   1.9893  1.9893 sum   3.9785
   19    C  MulP   2.0316  2.0316 sum   4.0632
   20    C  MulP   2.0314  2.0314 sum   4.0628
     ..........
     ......

 Sum of MulP: up   =   232.00000 down          =   232.00000
              total=   464.00000 ideal(neutral)=   464.00000
<DFT>  Total Spin Moment (muB) =  0.000000000000
<DFT>  Mixing_weight= 0.030000000000
<DFT>  Uele   = -223.167969792731  dUele     =   0.000006232880
<DFT>  NormRD =    0.000000696632  Criterion =   0.000000010000

******************* MD= 1  SCF=33 *******************
<Poisson>  Poisson's equation using FFT...
<Set_Hamiltonian>  Hamiltonian matrix for VNA+dVH+Vxc...
<Band>  Solving the eigenvalue problem...
 KGrids1:  -0.43750  -0.31250  -0.18750  -0.06250   0.06250   0.18750   0.31250   0.43750 
 KGrids2:  -0.43750  -0.31250  -0.18750  -0.06250   0.06250   0.18750   0.31250   0.43750 
 KGrids3:   0.00000 
<Band_DFT>  Eigen, time=11.438235
<Band_DFT>  DM, time=0.000000
    1    C  MulP   1.9992  1.9992 sum   3.9985
    2    C  MulP   1.9987  1.9987 sum   3.9973
    3    C  MulP   1.9989  1.9989 sum   3.9978
    4    C  MulP   1.9990  1.9990 sum   3.9981
    5    C  MulP   1.9996  1.9996 sum   3.9991
    6    C  MulP   1.9989  1.9989 sum   3.9979
    7    C  MulP   1.9992  1.9992 sum   3.9983
    8    C  MulP   1.9994  1.9994 sum   3.9987
    9    C  MulP   1.9987  1.9987 sum   3.9974
   10    C  MulP   1.9946  1.9946 sum   3.9891
   11    C  MulP   1.9806  1.9806 sum   3.9612
   12    C  MulP   1.9945  1.9945 sum   3.9891
   13    C  MulP   1.9987  1.9987 sum   3.9974
   14    C  MulP   1.9992  1.9992 sum   3.9983
   15    C  MulP   1.9998  1.9998 sum   3.9995
   16    C  MulP   1.9992  1.9992 sum   3.9983
   17    C  MulP   1.9992  1.9992 sum   3.9984
   18    C  MulP   1.9893  1.9893 sum   3.9785
   19    C  MulP   2.0316  2.0316 sum   4.0632
   20    C  MulP   2.0314  2.0314 sum   4.0628
     ..........
     ......

 Sum of MulP: up   =   232.00000 down          =   232.00000
              total=   464.00000 ideal(neutral)=   464.00000
<DFT>  Total Spin Moment (muB) =  0.000000000000
<DFT>  Mixing_weight= 0.030000000000
<DFT>  Uele   = -223.167974618573  dUele     =   0.000004825841
<DFT>  NormRD =    0.000000440137  Criterion =   0.000000010000

******************* MD= 1  SCF=34 *******************
<Poisson>  Poisson's equation using FFT...
<Set_Hamiltonian>  Hamiltonian matrix for VNA+dVH+Vxc...
<Band>  Solving the eigenvalue problem...
 KGrids1:  -0.43750  -0.31250  -0.18750  -0.06250   0.06250   0.18750   0.31250   0.43750 
 KGrids2:  -0.43750  -0.31250  -0.18750  -0.06250   0.06250   0.18750   0.31250   0.43750 
 KGrids3:   0.00000 
<Band_DFT>  Eigen, time=11.439056
<Band_DFT>  DM, time=0.000000
    1    C  MulP   1.9992  1.9992 sum   3.9985
    2    C  MulP   1.9987  1.9987 sum   3.9973
    3    C  MulP   1.9989  1.9989 sum   3.9978
    4    C  MulP   1.9990  1.9990 sum   3.9981
    5    C  MulP   1.9996  1.9996 sum   3.9991
    6    C  MulP   1.9989  1.9989 sum   3.9979
    7    C  MulP   1.9992  1.9992 sum   3.9983
    8    C  MulP   1.9994  1.9994 sum   3.9987
    9    C  MulP   1.9987  1.9987 sum   3.9974
   10    C  MulP   1.9946  1.9946 sum   3.9891
   11    C  MulP   1.9806  1.9806 sum   3.9612
   12    C  MulP   1.9945  1.9945 sum   3.9891
   13    C  MulP   1.9987  1.9987 sum   3.9974
   14    C  MulP   1.9992  1.9992 sum   3.9983
   15    C  MulP   1.9998  1.9998 sum   3.9995
   16    C  MulP   1.9992  1.9992 sum   3.9983
   17    C  MulP   1.9992  1.9992 sum   3.9984
   18    C  MulP   1.9893  1.9893 sum   3.9785
   19    C  MulP   2.0316  2.0316 sum   4.0632
   20    C  MulP   2.0314  2.0314 sum   4.0628
     ..........
     ......

 Sum of MulP: up   =   232.00000 down          =   232.00000
              total=   464.00000 ideal(neutral)=   464.00000
<DFT>  Total Spin Moment (muB) =  0.000000000000
<DFT>  Mixing_weight= 0.030000000000
<DFT>  Uele   = -223.167979243419  dUele     =   0.000004624846
<DFT>  NormRD =    0.000000209044  Criterion =   0.000000010000

******************* MD= 1  SCF=35 *******************
<Poisson>  Poisson's equation using FFT...
<Set_Hamiltonian>  Hamiltonian matrix for VNA+dVH+Vxc...
<Band>  Solving the eigenvalue problem...
 KGrids1:  -0.43750  -0.31250  -0.18750  -0.06250   0.06250   0.18750   0.31250   0.43750 
 KGrids2:  -0.43750  -0.31250  -0.18750  -0.06250   0.06250   0.18750   0.31250   0.43750 
 KGrids3:   0.00000 
<Band_DFT>  Eigen, time=11.414491
<Band_DFT>  DM, time=0.000001
    1    C  MulP   1.9992  1.9992 sum   3.9985
    2    C  MulP   1.9987  1.9987 sum   3.9973
    3    C  MulP   1.9989  1.9989 sum   3.9978
    4    C  MulP   1.9990  1.9990 sum   3.9981
    5    C  MulP   1.9996  1.9996 sum   3.9991
    6    C  MulP   1.9989  1.9989 sum   3.9979
    7    C  MulP   1.9992  1.9992 sum   3.9983
    8    C  MulP   1.9994  1.9994 sum   3.9987
    9    C  MulP   1.9987  1.9987 sum   3.9974
   10    C  MulP   1.9946  1.9946 sum   3.9891
   11    C  MulP   1.9806  1.9806 sum   3.9612
   12    C  MulP   1.9945  1.9945 sum   3.9891
   13    C  MulP   1.9987  1.9987 sum   3.9974
   14    C  MulP   1.9992  1.9992 sum   3.9983
   15    C  MulP   1.9998  1.9998 sum   3.9995
   16    C  MulP   1.9992  1.9992 sum   3.9983
   17    C  MulP   1.9992  1.9992 sum   3.9984
   18    C  MulP   1.9893  1.9893 sum   3.9785
   19    C  MulP   2.0316  2.0316 sum   4.0632
   20    C  MulP   2.0314  2.0314 sum   4.0628
     ..........
     ......

 Sum of MulP: up   =   232.00000 down          =   232.00000
              total=   464.00000 ideal(neutral)=   464.00000
<DFT>  Total Spin Moment (muB) =  0.000000000000
<DFT>  Mixing_weight= 0.030000000000
<DFT>  Uele   = -223.167980295303  dUele     =   0.000001051884
<DFT>  NormRD =    0.000000144303  Criterion =   0.000000010000

******************* MD= 1  SCF=36 *******************
<Poisson>  Poisson's equation using FFT...
<Set_Hamiltonian>  Hamiltonian matrix for VNA+dVH+Vxc...
<Band>  Solving the eigenvalue problem...
 KGrids1:  -0.43750  -0.31250  -0.18750  -0.06250   0.06250   0.18750   0.31250   0.43750 
 KGrids2:  -0.43750  -0.31250  -0.18750  -0.06250   0.06250   0.18750   0.31250   0.43750 
 KGrids3:   0.00000 
<Band_DFT>  Eigen, time=11.411074
<Band_DFT>  DM, time=0.000001
    1    C  MulP   1.9992  1.9992 sum   3.9985
    2    C  MulP   1.9987  1.9987 sum   3.9973
    3    C  MulP   1.9989  1.9989 sum   3.9978
    4    C  MulP   1.9990  1.9990 sum   3.9981
    5    C  MulP   1.9996  1.9996 sum   3.9991
    6    C  MulP   1.9989  1.9989 sum   3.9979
    7    C  MulP   1.9992  1.9992 sum   3.9983
    8    C  MulP   1.9994  1.9994 sum   3.9987
    9    C  MulP   1.9987  1.9987 sum   3.9974
   10    C  MulP   1.9946  1.9946 sum   3.9891
   11    C  MulP   1.9806  1.9806 sum   3.9612
   12    C  MulP   1.9945  1.9945 sum   3.9891
   13    C  MulP   1.9987  1.9987 sum   3.9974
   14    C  MulP   1.9992  1.9992 sum   3.9983
   15    C  MulP   1.9998  1.9998 sum   3.9995
   16    C  MulP   1.9992  1.9992 sum   3.9983
   17    C  MulP   1.9992  1.9992 sum   3.9984
   18    C  MulP   1.9893  1.9893 sum   3.9785
   19    C  MulP   2.0316  2.0316 sum   4.0632
   20    C  MulP   2.0314  2.0314 sum   4.0628
     ..........
     ......

 Sum of MulP: up   =   232.00000 down          =   232.00000
              total=   464.00000 ideal(neutral)=   464.00000
<DFT>  Total Spin Moment (muB) =  0.000000000000
<DFT>  Mixing_weight= 0.030000000000
<DFT>  Uele   = -223.167982266288  dUele     =   0.000001970984
<DFT>  NormRD =    0.000000037979  Criterion =   0.000000010000

******************* MD= 1  SCF=37 *******************
<Poisson>  Poisson's equation using FFT...
<Set_Hamiltonian>  Hamiltonian matrix for VNA+dVH+Vxc...
<Band>  Solving the eigenvalue problem...
 KGrids1:  -0.43750  -0.31250  -0.18750  -0.06250   0.06250   0.18750   0.31250   0.43750 
 KGrids2:  -0.43750  -0.31250  -0.18750  -0.06250   0.06250   0.18750   0.31250   0.43750 
 KGrids3:   0.00000 
<Band_DFT>  Eigen, time=11.429983
<Band_DFT>  DM, time=0.000001
    1    C  MulP   1.9992  1.9992 sum   3.9985
    2    C  MulP   1.9987  1.9987 sum   3.9973
    3    C  MulP   1.9989  1.9989 sum   3.9978
    4    C  MulP   1.9990  1.9990 sum   3.9981
    5    C  MulP   1.9996  1.9996 sum   3.9991
    6    C  MulP   1.9989  1.9989 sum   3.9979
    7    C  MulP   1.9992  1.9992 sum   3.9983
    8    C  MulP   1.9994  1.9994 sum   3.9987
    9    C  MulP   1.9987  1.9987 sum   3.9974
   10    C  MulP   1.9946  1.9946 sum   3.9891
   11    C  MulP   1.9806  1.9806 sum   3.9612
   12    C  MulP   1.9945  1.9945 sum   3.9891
   13    C  MulP   1.9987  1.9987 sum   3.9974
   14    C  MulP   1.9992  1.9992 sum   3.9983
   15    C  MulP   1.9998  1.9998 sum   3.9995
   16    C  MulP   1.9992  1.9992 sum   3.9983
   17    C  MulP   1.9992  1.9992 sum   3.9984
   18    C  MulP   1.9893  1.9893 sum   3.9785
   19    C  MulP   2.0316  2.0316 sum   4.0632
   20    C  MulP   2.0314  2.0314 sum   4.0628
     ..........
     ......

 Sum of MulP: up   =   232.00000 down          =   232.00000
              total=   464.00000 ideal(neutral)=   464.00000
<DFT>  Total Spin Moment (muB) =  0.000000000000
<DFT>  Mixing_weight= 0.030000000000
<DFT>  Uele   = -223.167982523366  dUele     =   0.000000257078
<DFT>  NormRD =    0.000000019669  Criterion =   0.000000010000

******************* MD= 1  SCF=38 *******************
<Poisson>  Poisson's equation using FFT...
<Set_Hamiltonian>  Hamiltonian matrix for VNA+dVH+Vxc...
<Band>  Solving the eigenvalue problem...
 KGrids1:  -0.43750  -0.31250  -0.18750  -0.06250   0.06250   0.18750   0.31250   0.43750 
 KGrids2:  -0.43750  -0.31250  -0.18750  -0.06250   0.06250   0.18750   0.31250   0.43750 
 KGrids3:   0.00000 
<Band_DFT>  Eigen, time=11.438959
<Band_DFT>  DM, time=0.000001
    1    C  MulP   1.9992  1.9992 sum   3.9985
    2    C  MulP   1.9987  1.9987 sum   3.9973
    3    C  MulP   1.9989  1.9989 sum   3.9978
    4    C  MulP   1.9990  1.9990 sum   3.9981
    5    C  MulP   1.9996  1.9996 sum   3.9991
    6    C  MulP   1.9989  1.9989 sum   3.9979
    7    C  MulP   1.9992  1.9992 sum   3.9983
    8    C  MulP   1.9994  1.9994 sum   3.9987
    9    C  MulP   1.9987  1.9987 sum   3.9974
   10    C  MulP   1.9946  1.9946 sum   3.9891
   11    C  MulP   1.9806  1.9806 sum   3.9612
   12    C  MulP   1.9945  1.9945 sum   3.9891
   13    C  MulP   1.9987  1.9987 sum   3.9974
   14    C  MulP   1.9992  1.9992 sum   3.9983
   15    C  MulP   1.9998  1.9998 sum   3.9995
   16    C  MulP   1.9992  1.9992 sum   3.9983
   17    C  MulP   1.9992  1.9992 sum   3.9984
   18    C  MulP   1.9893  1.9893 sum   3.9785
   19    C  MulP   2.0316  2.0316 sum   4.0632
   20    C  MulP   2.0314  2.0314 sum   4.0628
     ..........
     ......

 Sum of MulP: up   =   232.00000 down          =   232.00000
              total=   464.00000 ideal(neutral)=   464.00000
<DFT>  Total Spin Moment (muB) =  0.000000000000
<DFT>  Mixing_weight= 0.030000000000
<DFT>  Uele   = -223.167982649423  dUele     =   0.000000126057
<DFT>  NormRD =    0.000000006134  Criterion =   0.000000010000

******************* MD= 1  SCF=39 *******************
<Poisson>  Poisson's equation using FFT...
<Set_Hamiltonian>  Hamiltonian matrix for VNA+dVH+Vxc...
<Band>  Solving the eigenvalue problem...
 KGrids1:  -0.43750  -0.31250  -0.18750  -0.06250   0.06250   0.18750   0.31250   0.43750 
 KGrids2:  -0.43750  -0.31250  -0.18750  -0.06250   0.06250   0.18750   0.31250   0.43750 
 KGrids3:   0.00000 
<Band_DFT>  Eigen, time=11.427600
<Band_DFT>  DM, time=0.000000
    1    C  MulP   1.9992  1.9992 sum   3.9985
    2    C  MulP   1.9987  1.9987 sum   3.9973
    3    C  MulP   1.9989  1.9989 sum   3.9978
    4    C  MulP   1.9990  1.9990 sum   3.9981
    5    C  MulP   1.9996  1.9996 sum   3.9991
    6    C  MulP   1.9989  1.9989 sum   3.9979
    7    C  MulP   1.9992  1.9992 sum   3.9983
    8    C  MulP   1.9994  1.9994 sum   3.9987
    9    C  MulP   1.9987  1.9987 sum   3.9974
   10    C  MulP   1.9946  1.9946 sum   3.9891
   11    C  MulP   1.9806  1.9806 sum   3.9612
   12    C  MulP   1.9945  1.9945 sum   3.9891
   13    C  MulP   1.9987  1.9987 sum   3.9974
   14    C  MulP   1.9992  1.9992 sum   3.9983
   15    C  MulP   1.9998  1.9998 sum   3.9995
   16    C  MulP   1.9992  1.9992 sum   3.9983
   17    C  MulP   1.9992  1.9992 sum   3.9984
   18    C  MulP   1.9893  1.9893 sum   3.9785
   19    C  MulP   2.0316  2.0316 sum   4.0632
   20    C  MulP   2.0314  2.0314 sum   4.0628
     ..........
     ......

 Sum of MulP: up   =   232.00000 down          =   232.00000
              total=   464.00000 ideal(neutral)=   464.00000
<DFT>  Total Spin Moment (muB) =  0.000000000000
<DFT>  Mixing_weight= 0.030000000000
<DFT>  Uele   = -223.167982651145  dUele     =   0.000000001722
<DFT>  NormRD =    0.000000004442  Criterion =   0.000000010000
<MD= 1>  Force calculation
  Force calculation #1
  Force calculation #2
  Force calculation #3
  Force calculation #4
  Force calculation #5
<MD= 1>  Total Energy
  Force calculation #6
  Force calculation #7

*******************************************************
                  Dipole moment (Debye)                 
[...]
 KGrids2:  -0.43750  -0.31250  -0.18750  -0.06250   0.06250   0.18750   0.31250   0.43750 
 KGrids3:   0.00000 
<Band_DFT>  Eigen, time=11.752759
<Band_DFT>  DM, time=0.000000
    1    C  MulP   1.9987  1.9987 sum   3.9974
    2    C  MulP   1.9980  1.9980 sum   3.9960
    3    C  MulP   1.9981  1.9981 sum   3.9963
    4    C  MulP   1.9985  1.9985 sum   3.9971
    5    C  MulP   1.9999  1.9999 sum   3.9999
    6    C  MulP   1.9989  1.9989 sum   3.9978
    7    C  MulP   1.9991  1.9991 sum   3.9982
    8    C  MulP   1.9997  1.9997 sum   3.9995
    9    C  MulP   1.9985  1.9985 sum   3.9970
   10    C  MulP   1.9947  1.9947 sum   3.9895
   11    C  MulP   1.9806  1.9806 sum   3.9613
   12    C  MulP   1.9947  1.9947 sum   3.9895
   13    C  MulP   1.9986  1.9986 sum   3.9973
   14    C  MulP   1.9990  1.9990 sum   3.9981
   15    C  MulP   2.0002  2.0002 sum   4.0004
   16    C  MulP   1.9991  1.9991 sum   3.9982
   17    C  MulP   1.9997  1.9997 sum   3.9993
   18    C  MulP   1.9958  1.9958 sum   3.9915
   19    C  MulP   2.0266  2.0266 sum   4.0532
   20    C  MulP   2.0267  2.0267 sum   4.0534
     ..........
     ......

 Sum of MulP: up   =   232.00000 down          =   232.00000
              total=   464.00000 ideal(neutral)=   464.00000
<DFT>  Total Spin Moment (muB) =  0.000000000000
<DFT>  Mixing_weight= 0.030000000000
<DFT>  Uele   = -223.037042987318  dUele     =   0.000000036788
<DFT>  NormRD =    0.000000043475  Criterion =   0.000000010000

******************* MD=11  SCF=18 *******************
<Poisson>  Poisson's equation using FFT...
<Set_Hamiltonian>  Hamiltonian matrix for VNA+dVH+Vxc...
<Band>  Solving the eigenvalue problem...
 KGrids1:  -0.43750  -0.31250  -0.18750  -0.06250   0.06250   0.18750   0.31250   0.43750 
 KGrids2:  -0.43750  -0.31250  -0.18750  -0.06250   0.06250   0.18750   0.31250   0.43750 
 KGrids3:   0.00000 
<Band_DFT>  Eigen, time=11.731521
<Band_DFT>  DM, time=0.000000
    1    C  MulP   1.9987  1.9987 sum   3.9974
    2    C  MulP   1.9980  1.9980 sum   3.9960
    3    C  MulP   1.9981  1.9981 sum   3.9963
    4    C  MulP   1.9985  1.9985 sum   3.9971
    5    C  MulP   1.9999  1.9999 sum   3.9999
    6    C  MulP   1.9989  1.9989 sum   3.9978
    7    C  MulP   1.9991  1.9991 sum   3.9982
    8    C  MulP   1.9997  1.9997 sum   3.9995
    9    C  MulP   1.9985  1.9985 sum   3.9970
   10    C  MulP   1.9947  1.9947 sum   3.9895
   11    C  MulP   1.9806  1.9806 sum   3.9613
   12    C  MulP   1.9947  1.9947 sum   3.9895
   13    C  MulP   1.9986  1.9986 sum   3.9973
   14    C  MulP   1.9990  1.9990 sum   3.9981
   15    C  MulP   2.0002  2.0002 sum   4.0004
   16    C  MulP   1.9991  1.9991 sum   3.9982
   17    C  MulP   1.9997  1.9997 sum   3.9993
   18    C  MulP   1.9958  1.9958 sum   3.9915
   19    C  MulP   2.0266  2.0266 sum   4.0532
   20    C  MulP   2.0267  2.0267 sum   4.0534
     ..........
     ......

 Sum of MulP: up   =   232.00000 down          =   232.00000
              total=   464.00000 ideal(neutral)=   464.00000
<DFT>  Total Spin Moment (muB) =  0.000000000000
<DFT>  Mixing_weight= 0.030000000000
<DFT>  Uele   = -223.037042985569  dUele     =   0.000000001749
<DFT>  NormRD =    0.000000034501  Criterion =   0.000000010000
<MD=11>  Force calculation
  Force calculation #1
  Force calculation #2
  Force calculation #3
  Force calculation #4
  Force calculation #5
<MD=11>  Total Energy
  Force calculation #6
  Force calculation #7

*******************************************************
                  Dipole moment (Debye)                 
*******************************************************

 Absolute D        0.00066610

                      Dx                Dy                Dz
 Total             -0.00023997       -0.00038073       -0.00049107
 Core           10997.64246949    19048.47861638    23401.22353272
 Electron      -10997.64270946   -19048.47899711   -23401.22402379
 Back ground       -0.00000000       -0.00000000       -0.00000000

*******************************************************
                Total Energy (Hartree) at MD =11        
*******************************************************

  Uele  =    -223.037042985569

  Ukin  =     479.710960676704
  UH0   =   -6230.921978602777
  UH1   =       1.810269524507
  Una   =    -335.854779553856
  Unl   =     -61.202933788914
  Uxc0  =    -111.658669594446
  Uxc1  =    -111.658669594446
  Ucore =    5692.931772171297
  Uhub  =       0.000000000000
  Ucs   =       0.000000000000
  Uzs   =       0.000000000000
  Uzo   =       0.000000000000
  Uef   =       0.000000000000
  UvdW  =       0.000000000000
  Uch   =       0.000000000000
  Utot  =    -676.844028761930

  UpV   =       0.000000000000
  Enpy  =    -676.844028761930
  Note:

  Uele:   band energy
  Ukin:   kinetic energy
  UH0:    electric part of screened Coulomb energy
  UH1:    difference electron-electron Coulomb energy
  Una:    neutral atom potential energy
  Unl:    non-local potential energy
  Uxc0:   exchange-correlation energy for alpha spin
  Uxc1:   exchange-correlation energy for beta spin
  Ucore:  core-core Coulomb energy
  Uhub:   LDA+U energy
  Ucs:    constraint energy for spin orientation
  Uzs:    Zeeman term for spin magnetic moment
  Uzo:    Zeeman term for orbital magnetic moment
  Uef:    electric energy by electric field
  UvdW:   semi-empirical vdW energy 
  Uch:    penalty term to create a core hole
  UpV:    pressure times volume
  Enpy:   Enthalpy = Utot + UpV
  (see also PRB 72, 045121(2005) for the energy contributions)


*******************************************************
           Computational times (s) at MD =11            
*******************************************************

  DFT in total      =  270.89487

  Set_OLP_Kin       =    1.63865
  Set_Nonlocal      =    3.54515
  Set_ProExpn_VNA   =    5.90198
  Set_Hamiltonian   =   23.04459
  Poisson           =    0.28447
  diagonalization   =  218.36218
  Mixing_DM         =    2.40389
  Force             =    4.29939
  Total_Energy      =    1.66770
  Set_Aden_Grid     =    0.24277
  Set_Orbitals_Grid =    0.75038
  Set_Density_Grid  =    8.02034
  RestartFileDFT    =    0.28868
  Mulliken_Charge   =    0.01177
  FFT(2D)_Density   =    0.29146

The SCF was achieved at MD=  11

*******************************************************
             MD or geometry opt. at MD =11              
*******************************************************


The geometry optimization was achieved.
<RF>  |Maximum force| (Hartree/Bohr) = 0.000066465819
<RF>  Criterion       (Hartree/Bohr) = 0.000100000000

     atom=   1, XYZ(ang) Fxyz(a.u.)=   0.0046    1.4327   10.5000    -0.0000   -0.0000    0.0000
     atom=   2, XYZ(ang) Fxyz(a.u.)=  -1.2216    3.5685   10.5000    -0.0000   -0.0000   -0.0000
     atom=   3, XYZ(ang) Fxyz(a.u.)=  -2.4548    5.7046   10.5000    -0.0000    0.0000   -0.0000
     atom=   4, XYZ(ang) Fxyz(a.u.)=  -3.6915    7.8345   10.5000    -0.0000   -0.0000   -0.0000
     atom=   5, XYZ(ang) Fxyz(a.u.)=  -4.9346    9.9684   10.5000     0.0000   -0.0000   -0.0000
     atom=   6, XYZ(ang) Fxyz(a.u.)=  -6.1745   12.1031   10.5000    -0.0000   -0.0000   -0.0000
     atom=   7, XYZ(ang) Fxyz(a.u.)=  -7.4093   14.2419   10.5000    -0.0000   -0.0000   -0.0000
     atom=   8, XYZ(ang) Fxyz(a.u.)=  -8.6381   16.3830   10.5000    -0.0000    0.0000    0.0000
     atom=   9, XYZ(ang) Fxyz(a.u.)=   2.4738    1.4426   10.5000    -0.0000   -0.0000    0.0000
     atom=  10, XYZ(ang) Fxyz(a.u.)=   1.2528    3.5892   10.5000    -0.0000   -0.0000    0.0000
     atom=  11, XYZ(ang) Fxyz(a.u.)=   0.0231    5.7110   10.5000    -0.0000   -0.0000   -0.0000
     atom=  12, XYZ(ang) Fxyz(a.u.)=  -1.1996    7.8369   10.5000     0.0000   -0.0000    0.0000
     atom=  13, XYZ(ang) Fxyz(a.u.)=  -2.4481    9.9678   10.5000    -0.0000   -0.0000    0.0000
     atom=  14, XYZ(ang) Fxyz(a.u.)=  -3.6948   12.1031   10.5000     0.0000   -0.0000   -0.0000
     atom=  15, XYZ(ang) Fxyz(a.u.)=  -4.9346   14.2447   10.5000     0.0000    0.0000   -0.0000
     atom=  16, XYZ(ang) Fxyz(a.u.)=  -6.1695   16.3891   10.5000    -0.0000    0.0000    0.0000
     atom=  17, XYZ(ang) Fxyz(a.u.)=   4.9345    1.4497   10.5000    -0.0000   -0.0000    0.0000
     atom=  18, XYZ(ang) Fxyz(a.u.)=   3.7140    3.6132   10.5000     0.0000   -0.0000    0.0000
     atom=  19, XYZ(ang) Fxyz(a.u.)=   2.5241    5.7086   10.5000    -0.0000    0.0000    0.0000
     atom=  20, XYZ(ang) Fxyz(a.u.)=   1.2715    7.8779   10.5000     0.0000   -0.0001    0.0000
     atom=  21, XYZ(ang) Fxyz(a.u.)=   0.0519    9.9566   10.5000     0.0000    0.0000    0.0000
     atom=  22, XYZ(ang) Fxyz(a.u.)=  -1.2114   12.0953   10.5000     0.0000   -0.0000    0.0000
     atom=  23, XYZ(ang) Fxyz(a.u.)=  -2.4599   14.2419   10.5000     0.0000    0.0000   -0.0000
     atom=  24, XYZ(ang) Fxyz(a.u.)=  -3.6998   16.3892   10.5000     0.0000    0.0000   -0.0000
     atom=  25, XYZ(ang) Fxyz(a.u.)=   7.3953    1.4427   10.5000     0.0000    0.0000   -0.0000
     atom=  26, XYZ(ang) Fxyz(a.u.)=   6.1549    3.6134   10.5000    -0.0000   -0.0000    0.0000
     atom=  27, XYZ(ang) Fxyz(a.u.)=   1.2727   12.0708   10.5000    -0.0000   -0.0000    0.0000
     atom=  28, XYZ(ang) Fxyz(a.u.)=   0.0127   14.2301   10.5000    -0.0000    0.0000    0.0000
     atom=  29, XYZ(ang) Fxyz(a.u.)=  -1.2311   16.3830   10.5000     0.0000    0.0000   -0.0000
     atom=  30, XYZ(ang) Fxyz(a.u.)=   9.8645    1.4327   10.5000    -0.0000   -0.0000    0.0000
     atom=  31, XYZ(ang) Fxyz(a.u.)=   8.6163    3.5892   10.5000    -0.0000   -0.0000   -0.0000
     atom=  32, XYZ(ang) Fxyz(a.u.)=   7.3450    5.7087   10.5000     0.0000    0.0000   -0.0000
     atom=  33, XYZ(ang) Fxyz(a.u.)=   3.6833   12.0541   10.5000     0.0001    0.0000   -0.0000
     atom=  34, XYZ(ang) Fxyz(a.u.)=   2.4824   14.2145   10.5000     0.0000    0.0000    0.0000
     atom=  35, XYZ(ang) Fxyz(a.u.)=   1.2385   16.3736   10.5000    -0.0000    0.0000    0.0000
     atom=  36, XYZ(ang) Fxyz(a.u.)=  12.3341    1.4233   10.5000    -0.0000   -0.0000    0.0000
     atom=  37, XYZ(ang) Fxyz(a.u.)=  11.0906    3.5685   10.5000     0.0000   -0.0000    0.0000
     atom=  38, XYZ(ang) Fxyz(a.u.)=   9.8460    5.7110   10.5000    -0.0000    0.0000    0.0000
     atom=  39, XYZ(ang) Fxyz(a.u.)=   8.5976    7.8777   10.5000    -0.0000   -0.0000    0.0000
     atom=  40, XYZ(ang) Fxyz(a.u.)=   6.1858   12.0541   10.5000    -0.0000    0.0000   -0.0000
     atom=  41, XYZ(ang) Fxyz(a.u.)=   4.9346   14.2190   10.5000     0.0000    0.0000   -0.0000
     atom=  42, XYZ(ang) Fxyz(a.u.)=   3.7013   16.3678   10.5000    -0.0000    0.0000    0.0000
     atom=  43, XYZ(ang) Fxyz(a.u.)=  14.8038    1.4204   10.5000     0.0000    0.0000    0.0000
     atom=  44, XYZ(ang) Fxyz(a.u.)=  13.5663    3.5634   10.5000    -0.0000   -0.0000    0.0000
     atom=  45, XYZ(ang) Fxyz(a.u.)=  12.3240    5.7047   10.5000     0.0000   -0.0000    0.0000
     atom=  46, XYZ(ang) Fxyz(a.u.)=  11.0688    7.8370   10.5000     0.0000    0.0000    0.0000
     atom=  47, XYZ(ang) Fxyz(a.u.)=   9.8170    9.9566   10.5000    -0.0000    0.0000    0.0000
     atom=  48, XYZ(ang) Fxyz(a.u.)=   8.5964   12.0708   10.5000     0.0000   -0.0000    0.0000
     atom=  49, XYZ(ang) Fxyz(a.u.)=   7.3869   14.2146   10.5000    -0.0000    0.0000    0.0000
     atom=  50, XYZ(ang) Fxyz(a.u.)=   6.1679   16.3679   10.5000     0.0000    0.0000   -0.0000
     atom=  51, XYZ(ang) Fxyz(a.u.)=  17.2733    1.4233   10.5000     0.0000   -0.0000    0.0000
     atom=  52, XYZ(ang) Fxyz(a.u.)=  16.0411    3.5634   10.5000    -0.0000   -0.0000   -0.0000
     atom=  53, XYZ(ang) Fxyz(a.u.)=  14.8037    5.7006   10.5000     0.0000    0.0000   -0.0000
     atom=  54, XYZ(ang) Fxyz(a.u.)=  13.5606    7.8345   10.5000     0.0000    0.0000    0.0000
     atom=  55, XYZ(ang) Fxyz(a.u.)=  12.3172    9.9678   10.5000     0.0000   -0.0000    0.0000
     atom=  56, XYZ(ang) Fxyz(a.u.)=  11.0804   12.0954   10.5000     0.0000    0.0000    0.0000
     atom=  57, XYZ(ang) Fxyz(a.u.)=   9.8564   14.2301   10.5000    -0.0000    0.0000    0.0000
     atom=  58, XYZ(ang) Fxyz(a.u.)=   8.6306   16.3736   10.5000     0.0000    0.0000    0.0000
     atom=  59, XYZ(ang) Fxyz(a.u.)=   1.2385    0.7202   10.5000    -0.0000   -0.0000   -0.0000
     atom=  60, XYZ(ang) Fxyz(a.u.)=   0.0128    2.8638   10.5000     0.0000   -0.0000   -0.0000
     atom=  61, XYZ(ang) Fxyz(a.u.)=  -1.2112    4.9985   10.5000    -0.0000   -0.0000    0.0000
     atom=  62, XYZ(ang) Fxyz(a.u.)=  -2.4480    7.1261   10.5000    -0.0000    0.0000    0.0000
     atom=  63, XYZ(ang) Fxyz(a.u.)=  -3.6915    9.2594   10.5000    -0.0000   -0.0000   -0.0000
     atom=  64, XYZ(ang) Fxyz(a.u.)=  -4.9346   11.3933   10.5000    -0.0000   -0.0000    0.0000
     atom=  65, XYZ(ang) Fxyz(a.u.)=  -6.1719   13.5305   10.5000     0.0000    0.0000    0.0000
     atom=  66, XYZ(ang) Fxyz(a.u.)=  -7.4041   15.6706   10.5000    -0.0000    0.0000    0.0000
     atom=  67, XYZ(ang) Fxyz(a.u.)=   3.7013    0.7260   10.5000    -0.0000   -0.0000   -0.0000
     atom=  68, XYZ(ang) Fxyz(a.u.)=   2.4823    2.8793   10.5000     0.0000   -0.0000   -0.0000
     atom=  69, XYZ(ang) Fxyz(a.u.)=   1.2728    5.0231   10.5000    -0.0000    0.0000   -0.0000
     atom=  70, XYZ(ang) Fxyz(a.u.)=   0.0522    7.1373   10.5000     0.0000   -0.0000    0.0000
     atom=  71, XYZ(ang) Fxyz(a.u.)=  -1.1997    9.2569   10.5000    -0.0000   -0.0000   -0.0000
     atom=  72, XYZ(ang) Fxyz(a.u.)=  -2.4548   11.3892   10.5000    -0.0000    0.0000   -0.0000
     atom=  73, XYZ(ang) Fxyz(a.u.)=  -3.6972   13.5305   10.5000     0.0000    0.0000    0.0000
     atom=  74, XYZ(ang) Fxyz(a.u.)=  -4.9346   15.6735   10.5000    -0.0000   -0.0000    0.0000
     atom=  75, XYZ(ang) Fxyz(a.u.)=   6.1679    0.7261   10.5000     0.0000   -0.0000   -0.0000
     atom=  76, XYZ(ang) Fxyz(a.u.)=   4.9346    2.8749   10.5000    -0.0000   -0.0000   -0.0000
     atom=  77, XYZ(ang) Fxyz(a.u.)=   3.6834    5.0397   10.5000     0.0000   -0.0000   -0.0000
     atom=  78, XYZ(ang) Fxyz(a.u.)=   1.2716    9.2162   10.5000     0.0000    0.0000   -0.0000
     atom=  79, XYZ(ang) Fxyz(a.u.)=   0.0231   11.3829   10.5000     0.0000   -0.0000   -0.0000
     atom=  80, XYZ(ang) Fxyz(a.u.)=  -1.2214   13.5254   10.5000    -0.0000    0.0000   -0.0000
     atom=  81, XYZ(ang) Fxyz(a.u.)=  -2.4650   15.6706   10.5000     0.0000    0.0000    0.0000
     atom=  82, XYZ(ang) Fxyz(a.u.)=   8.6307    0.7202   10.5000     0.0000   -0.0000    0.0000
     atom=  83, XYZ(ang) Fxyz(a.u.)=   7.3868    2.8794   10.5000    -0.0000   -0.0000    0.0000
     atom=  84, XYZ(ang) Fxyz(a.u.)=   6.1859    5.0398   10.5000    -0.0001   -0.0000    0.0000
     atom=  85, XYZ(ang) Fxyz(a.u.)=   2.5241   11.3852   10.5000    -0.0000   -0.0000   -0.0000
     atom=  86, XYZ(ang) Fxyz(a.u.)=   1.2529   13.5047   10.5000     0.0000    0.0000   -0.0000
     atom=  87, XYZ(ang) Fxyz(a.u.)=   0.0047   15.6612   10.5000     0.0000    0.0000   -0.0000
     atom=  88, XYZ(ang) Fxyz(a.u.)=  11.1002    0.7109   10.5000    -0.0000   -0.0000   -0.0000
     atom=  89, XYZ(ang) Fxyz(a.u.)=   9.8564    2.8638   10.5000     0.0000   -0.0000   -0.0000
     atom=  90, XYZ(ang) Fxyz(a.u.)=   8.5964    5.0231   10.5000     0.0000    0.0000    0.0000
     atom=  91, XYZ(ang) Fxyz(a.u.)=   3.7143   13.4805   10.5000     0.0000    0.0000    0.0000
     atom=  92, XYZ(ang) Fxyz(a.u.)=   2.4739   15.6512   10.5000    -0.0000   -0.0000   -0.0000
     atom=  93, XYZ(ang) Fxyz(a.u.)=  13.5690    0.7047   10.5000    -0.0000   -0.0000   -0.0000
     atom=  94, XYZ(ang) Fxyz(a.u.)=  12.3290    2.8520   10.5000    -0.0000   -0.0000   -0.0000
     atom=  95, XYZ(ang) Fxyz(a.u.)=  11.0805    4.9986   10.5000    -0.0000    0.0000   -0.0000
     atom=  96, XYZ(ang) Fxyz(a.u.)=   9.8173    7.1373   10.5000    -0.0000   -0.0000   -0.0000
     atom=  97, XYZ(ang) Fxyz(a.u.)=   8.5976    9.2160   10.5000    -0.0000    0.0001   -0.0000
     atom=  98, XYZ(ang) Fxyz(a.u.)=   7.3450   11.3853   10.5000     0.0000   -0.0000   -0.0000
     atom=  99, XYZ(ang) Fxyz(a.u.)=   6.1552   13.4807   10.5000    -0.0000    0.0000    0.0000
     atom= 100, XYZ(ang) Fxyz(a.u.)=   4.9347   15.6442   10.5000     0.0000    0.0000    0.0000
     atom= 101, XYZ(ang) Fxyz(a.u.)=  16.0387    0.7048   10.5000     0.0000   -0.0000   -0.0000
     atom= 102, XYZ(ang) Fxyz(a.u.)=  14.8038    2.8492   10.5000    -0.0000   -0.0000   -0.0000
     atom= 103, XYZ(ang) Fxyz(a.u.)=  13.5639    4.9908   10.5000    -0.0000    0.0000   -0.0000
     atom= 104, XYZ(ang) Fxyz(a.u.)=  12.3173    7.1261   10.5000     0.0000    0.0000   -0.0000
     atom= 105, XYZ(ang) Fxyz(a.u.)=  11.0687    9.2570   10.5000    -0.0000    0.0000   -0.0000
     atom= 106, XYZ(ang) Fxyz(a.u.)=   9.8460   11.3829   10.5000     0.0000    0.0000   -0.0000
     atom= 107, XYZ(ang) Fxyz(a.u.)=   8.6164   13.5047   10.5000     0.0000    0.0000   -0.0000
     atom= 108, XYZ(ang) Fxyz(a.u.)=   7.3954   15.6513   10.5000     0.0000    0.0000    0.0000
     atom= 109, XYZ(ang) Fxyz(a.u.)=  18.5073    0.7109   10.5000     0.0000   -0.0000   -0.0000
     atom= 110, XYZ(ang) Fxyz(a.u.)=  17.2785    2.8520   10.5000     0.0000    0.0000    0.0000
     atom= 111, XYZ(ang) Fxyz(a.u.)=  16.0437    4.9908   10.5000     0.0000    0.0000    0.0000
     atom= 112, XYZ(ang) Fxyz(a.u.)=  14.8038    7.1255   10.5000    -0.0000    0.0000    0.0000
     atom= 113, XYZ(ang) Fxyz(a.u.)=  13.5607    9.2594   10.5000     0.0000    0.0000   -0.0000
     atom= 114, XYZ(ang) Fxyz(a.u.)=  12.3240   11.3893   10.5000     0.0000   -0.0000    0.0000
     atom= 115, XYZ(ang) Fxyz(a.u.)=  11.0907   13.5254   10.5000     0.0000    0.0000   -0.0000
     atom= 116, XYZ(ang) Fxyz(a.u.)=   9.8646   15.6612   10.5000     0.0000    0.0000   -0.0000

outputting data on grids to files...


***********************************************************
***********************************************************
               Computational Time (second)                 
***********************************************************
***********************************************************

                               Min_ID   Min_Time       Max_ID   Max_Time
   Total Computational Time =     3     3636.108          0     3636.268
   readfile                 =    26        1.976          0        1.988
   truncation               =    26       12.489         23       13.382
   MD_pac                   =     0        0.263         30        0.300
   OutData                  =    17        0.889          0        1.035
   DFT                      =    23     3619.496         26     3620.389

*** In DFT ***

   Set_OLP_Kin              =    26       14.164         22       24.446
   Set_Nonlocal             =    22       34.165         26       44.492
   Set_ProExpn_VNA          =    18       66.651         30       69.699
   Set_Hamiltonian          =    16      311.136          4      311.140
   Poisson                  =    16        3.765          7        3.766
   Diagonalization          =     0     2949.330         16     2949.337
   Mixing_DM                =     6       31.807          7       31.808
   Force                    =    30       48.794         20       48.794
   Total_Energy             =    19       19.209          0       19.212
   Set_Aden_Grid            =    30        0.920         18        3.982
   Set_Orbitals_Grid        =    18        6.607         22       11.067
   Set_Density_Grid         =    16      107.094          6      108.772
   RestartFileDFT           =     1        0.806         18        4.445
   Mulliken_Charge          =    26        0.145          8        0.146
   FFT(2D)_Density          =    21        3.859          6        3.862
   Others                   =    31        1.608         16        4.843

The calculation was normally finished.
