
The number of threads in each node for OpenMP parallelization is 1.


*******************************************************
*******************************************************
 Welcome to OpenMX   Ver. 3.9.9                           
 Copyright (C), 2002-2019, T. Ozaki                    
 OpenMX comes with ABSOLUTELY NO WARRANTY.             
 This is free software, and you are welcome to         
 redistribute it under the constitution of the GNU-GPL.
*******************************************************
*******************************************************

Automatic determination of Kerker_factor:   3.992945286074


<Input_std>  Your input file was normally read.
<Input_std>  The system includes 3 species and 130 atoms.

*******************************************************
                     PAO and VPS                       
*******************************************************

<SetPara_DFT>  PAOs of species H were normally found.
<SetPara_DFT>  PAOs of species C were normally found.
<SetPara_DFT>  PAOs of species O were normally found.
<SetPara_DFT>  VPSs of species H were normally found.
               H_PBE19.vps is j-dependent.
               In case of scf.SpinOrbit.Coupling=off,
               j-dependent pseudo potentials are averaged by j-degeneracy,
               which corresponds to a scalar relativistic treatment.
<SetPara_DFT>  VPSs of species C were normally found.
               C_PBE19.vps is j-dependent.
               In case of scf.SpinOrbit.Coupling=off,
               j-dependent pseudo potentials are averaged by j-degeneracy,
               which corresponds to a scalar relativistic treatment.
<SetPara_DFT>  VPSs of species O were normally found.
               O_PBE19.vps is j-dependent.
               In case of scf.SpinOrbit.Coupling=off,
               j-dependent pseudo potentials are averaged by j-degeneracy,
               which corresponds to a scalar relativistic treatment.

*******************************************************
     Fourier transform of PAO and projectors of VNL    
*******************************************************

<FT_PAO>          Fourier transform of pseudo atomic orbitals
<FT_NLP>          Fourier transform of non-local projectors
<FT_ProExpn_VNA>  Fourier transform of VNA separable projectors
<FT_VNA>          Fourier transform of VNA potentials
<FT_ProductPAO>   Fourier transform of product of PAOs

*******************************************************
  Allocation of atoms to processors at MD_iter=    1     
*******************************************************

 proc =   0  # of atoms=   2  estimated weight=         2.00000
 proc =   1  # of atoms=   2  estimated weight=         2.00000
 proc =   2  # of atoms=   2  estimated weight=         2.00000
 proc =   3  # of atoms=   2  estimated weight=         2.00000
 proc =   4  # of atoms=   2  estimated weight=         2.00000
 proc =   5  # of atoms=   2  estimated weight=         2.00000
 proc =   6  # of atoms=   2  estimated weight=         2.00000
 proc =   7  # of atoms=   2  estimated weight=         2.00000
 proc =   8  # of atoms=   2  estimated weight=         2.00000
 proc =   9  # of atoms=   2  estimated weight=         2.00000
 proc =  10  # of atoms=   2  estimated weight=         2.00000
 proc =  11  # of atoms=   2  estimated weight=         2.00000
 proc =  12  # of atoms=   2  estimated weight=         2.00000
 proc =  13  # of atoms=   2  estimated weight=         2.00000
 proc =  14  # of atoms=   2  estimated weight=         2.00000
 proc =  15  # of atoms=   2  estimated weight=         2.00000
 proc =  16  # of atoms=   2  estimated weight=         2.00000
 proc =  17  # of atoms=   2  estimated weight=         2.00000
 proc =  18  # of atoms=   2  estimated weight=         2.00000
 proc =  19  # of atoms=   2  estimated weight=         2.00000
 proc =  20  # of atoms=   2  estimated weight=         2.00000
 proc =  21  # of atoms=   2  estimated weight=         2.00000
 proc =  22  # of atoms=   2  estimated weight=         2.00000
 proc =  23  # of atoms=   2  estimated weight=         2.00000
 proc =  24  # of atoms=   2  estimated weight=         2.00000
 proc =  25  # of atoms=   2  estimated weight=         2.00000
 proc =  26  # of atoms=   2  estimated weight=         2.00000
 proc =  27  # of atoms=   2  estimated weight=         2.00000
 proc =  28  # of atoms=   2  estimated weight=         2.00000
 proc =  29  # of atoms=   2  estimated weight=         2.00000
 proc =  30  # of atoms=   2  estimated weight=         2.00000
 proc =  31  # of atoms=   3  estimated weight=         3.00000
 proc =  32  # of atoms=   2  estimated weight=         2.00000
 proc =  33  # of atoms=   2  estimated weight=         2.00000
 proc =  34  # of atoms=   2  estimated weight=         2.00000
 proc =  35  # of atoms=   2  estimated weight=         2.00000
 proc =  36  # of atoms=   2  estimated weight=         2.00000
 proc =  37  # of atoms=   2  estimated weight=         2.00000
 proc =  38  # of atoms=   2  estimated weight=         2.00000
 proc =  39  # of atoms=   2  estimated weight=         2.00000
 proc =  40  # of atoms=   2  estimated weight=         2.00000
 proc =  41  # of atoms=   2  estimated weight=         2.00000
 proc =  42  # of atoms=   2  estimated weight=         2.00000
 proc =  43  # of atoms=   2  estimated weight=         2.00000
 proc =  44  # of atoms=   2  estimated weight=         2.00000
 proc =  45  # of atoms=   2  estimated weight=         2.00000
 proc =  46  # of atoms=   2  estimated weight=         2.00000
 proc =  47  # of atoms=   2  estimated weight=         2.00000
 proc =  48  # of atoms=   2  estimated weight=         2.00000
 proc =  49  # of atoms=   2  estimated weight=         2.00000
 proc =  50  # of atoms=   2  estimated weight=         2.00000
 proc =  51  # of atoms=   2  estimated weight=         2.00000
 proc =  52  # of atoms=   2  estimated weight=         2.00000
 proc =  53  # of atoms=   2  estimated weight=         2.00000
 proc =  54  # of atoms=   2  estimated weight=         2.00000
 proc =  55  # of atoms=   2  estimated weight=         2.00000
 proc =  56  # of atoms=   2  estimated weight=         2.00000
 proc =  57  # of atoms=   2  estimated weight=         2.00000
 proc =  58  # of atoms=   2  estimated weight=         2.00000
 proc =  59  # of atoms=   2  estimated weight=         2.00000
 proc =  60  # of atoms=   2  estimated weight=         2.00000
 proc =  61  # of atoms=   2  estimated weight=         2.00000
 proc =  62  # of atoms=   2  estimated weight=         2.00000
 proc =  63  # of atoms=   3  estimated weight=         3.00000




*******************************************************
        Analysis of neighbors and setting of grids        
*******************************************************

TFNAN=    5944   Average FNAN=  45.72308
TSNAN=       0   Average SNAN=   0.00000
<truncation> CpyCell= 1 ct_AN=   1 FNAN SNAN  45   0
<truncation> CpyCell= 1 ct_AN=   2 FNAN SNAN  45   0
<truncation> CpyCell= 1 ct_AN=   3 FNAN SNAN  45   0
<truncation> CpyCell= 1 ct_AN=   4 FNAN SNAN  45   0
<truncation> CpyCell= 1 ct_AN=   5 FNAN SNAN  45   0
<truncation> CpyCell= 1 ct_AN=   6 FNAN SNAN  45   0
<truncation> CpyCell= 1 ct_AN=   7 FNAN SNAN  45   0
<truncation> CpyCell= 1 ct_AN=   8 FNAN SNAN  45   0
<truncation> CpyCell= 1 ct_AN=   9 FNAN SNAN  45   0
<truncation> CpyCell= 1 ct_AN=  10 FNAN SNAN  46   0
<truncation> CpyCell= 1 ct_AN=  11 FNAN SNAN  47   0
<truncation> CpyCell= 1 ct_AN=  12 FNAN SNAN  47   0
<truncation> CpyCell= 1 ct_AN=  13 FNAN SNAN  45   0
<truncation> CpyCell= 1 ct_AN=  14 FNAN SNAN  45   0
<truncation> CpyCell= 1 ct_AN=  15 FNAN SNAN  45   0
<truncation> CpyCell= 1 ct_AN=  16 FNAN SNAN  45   0
<truncation> CpyCell= 1 ct_AN=  17 FNAN SNAN  45   0
<truncation> CpyCell= 1 ct_AN=  18 FNAN SNAN  47   0
<truncation> CpyCell= 1 ct_AN=  19 FNAN SNAN  47   0
<truncation> CpyCell= 1 ct_AN=  20 FNAN SNAN  47   0
     ..........
     ......

TFNAN=    5944   Average FNAN=  45.72308
TSNAN=       0   Average SNAN=   0.00000
<truncation> CpyCell= 2 ct_AN=   1 FNAN SNAN  45   0
<truncation> CpyCell= 2 ct_AN=   2 FNAN SNAN  45   0
<truncation> CpyCell= 2 ct_AN=   3 FNAN SNAN  45   0
<truncation> CpyCell= 2 ct_AN=   4 FNAN SNAN  45   0
<truncation> CpyCell= 2 ct_AN=   5 FNAN SNAN  45   0
<truncation> CpyCell= 2 ct_AN=   6 FNAN SNAN  45   0
<truncation> CpyCell= 2 ct_AN=   7 FNAN SNAN  45   0
<truncation> CpyCell= 2 ct_AN=   8 FNAN SNAN  45   0
<truncation> CpyCell= 2 ct_AN=   9 FNAN SNAN  45   0
<truncation> CpyCell= 2 ct_AN=  10 FNAN SNAN  46   0
<truncation> CpyCell= 2 ct_AN=  11 FNAN SNAN  47   0
<truncation> CpyCell= 2 ct_AN=  12 FNAN SNAN  47   0
<truncation> CpyCell= 2 ct_AN=  13 FNAN SNAN  45   0
<truncation> CpyCell= 2 ct_AN=  14 FNAN SNAN  45   0
<truncation> CpyCell= 2 ct_AN=  15 FNAN SNAN  45   0
<truncation> CpyCell= 2 ct_AN=  16 FNAN SNAN  45   0
<truncation> CpyCell= 2 ct_AN=  17 FNAN SNAN  45   0
<truncation> CpyCell= 2 ct_AN=  18 FNAN SNAN  47   0
<truncation> CpyCell= 2 ct_AN=  19 FNAN SNAN  47   0
<truncation> CpyCell= 2 ct_AN=  20 FNAN SNAN  47   0
     ..........
     ......

TFNAN=    5944   Average FNAN=  45.72308
TSNAN=       0   Average SNAN=   0.00000
<truncation> CpyCell= 2 ct_AN=   1 FNAN SNAN  45   0
<truncation> CpyCell= 2 ct_AN=   2 FNAN SNAN  45   0
<truncation> CpyCell= 2 ct_AN=   3 FNAN SNAN  45   0
<truncation> CpyCell= 2 ct_AN=   4 FNAN SNAN  45   0
<truncation> CpyCell= 2 ct_AN=   5 FNAN SNAN  45   0
<truncation> CpyCell= 2 ct_AN=   6 FNAN SNAN  45   0
<truncation> CpyCell= 2 ct_AN=   7 FNAN SNAN  45   0
<truncation> CpyCell= 2 ct_AN=   8 FNAN SNAN  45   0
<truncation> CpyCell= 2 ct_AN=   9 FNAN SNAN  45   0
<truncation> CpyCell= 2 ct_AN=  10 FNAN SNAN  46   0
<truncation> CpyCell= 2 ct_AN=  11 FNAN SNAN  47   0
<truncation> CpyCell= 2 ct_AN=  12 FNAN SNAN  47   0
<truncation> CpyCell= 2 ct_AN=  13 FNAN SNAN  45   0
<truncation> CpyCell= 2 ct_AN=  14 FNAN SNAN  45   0
<truncation> CpyCell= 2 ct_AN=  15 FNAN SNAN  45   0
<truncation> CpyCell= 2 ct_AN=  16 FNAN SNAN  45   0
<truncation> CpyCell= 2 ct_AN=  17 FNAN SNAN  45   0
<truncation> CpyCell= 2 ct_AN=  18 FNAN SNAN  47   0
<truncation> CpyCell= 2 ct_AN=  19 FNAN SNAN  47   0
<truncation> CpyCell= 2 ct_AN=  20 FNAN SNAN  47   0
     ..........
     ......

<Check_System> The system is slab.
lattice vectors (bohr)
A  = 37.299978480367,  0.000000000000,  0.000000000000
B  = -18.649989240184, 32.302728872609,  0.000000000000
C  =  0.000000000000,  0.000000000000, 39.684245760157
reciprocal lattice vectors (bohr^-1)
RA =  0.168450105420,  0.097254713866, -0.000000000000
RB =  0.000000000000,  0.194509427732,  0.000000000000
RC =  0.000000000000, -0.000000000000,  0.158329462658
Grid_Origin  0.024906501634  0.105259971801  0.145442127572
Cell_Volume =  47815.194201431834 (Bohr^3)
GridVol     =      0.006832303698 (Bohr^3)
Grid_Origin  0.024906501634  0.105259971801  0.145442127572
Cell_Volume =  47815.194201431834 (Bohr^3)
GridVol     =      0.006832303698 (Bohr^3)
<UCell_Box> Info. of cutoff energy and num. of grids
lattice vectors (bohr)
A  = 37.299978480367,  0.000000000000,  0.000000000000
B  = -18.649989240184, 32.302728872609,  0.000000000000
C  =  0.000000000000,  0.000000000000, 39.684245760157
reciprocal lattice vectors (bohr^-1)
RA =  0.168450105420,  0.097254713866, -0.000000000000
RB =  0.000000000000,  0.194509427732,  0.000000000000
RC =  0.000000000000, -0.000000000000,  0.158329462658
Required cutoff energy (Ryd) for 3D-grids = 300.0000
    Used cutoff energy (Ryd) for 3D-grids = 306.4547, 306.4547, 292.3957
Num. of grids of a-, b-, and c-axes = 180, 180, 216
Grid_Origin  0.024906501634  0.105259971801  0.145442127572
Cell_Volume =  47815.194201431834 (Bohr^3)
GridVol     =      0.006832303698 (Bohr^3)
Cell vectors (bohr) of the grid cell (gtv)
  gtv_a =  0.207222102669,  0.000000000000,  0.000000000000
  gtv_b = -0.103611051334,  0.179459604848,  0.000000000000
  gtv_c =  0.000000000000,  0.000000000000,  0.183723360001
  |gtv_a| =  0.207222102669
  |gtv_b| =  0.207222102419
  |gtv_c| =  0.183723360001
Num. of grids overlapping with atom    1 = 132420
Num. of grids overlapping with atom    2 = 132428
Num. of grids overlapping with atom    3 = 132420
Num. of grids overlapping with atom    4 = 132428
Num. of grids overlapping with atom    5 = 132420
Num. of grids overlapping with atom    6 = 132428
Num. of grids overlapping with atom    7 = 132420
Num. of grids overlapping with atom    8 = 132428
Num. of grids overlapping with atom    9 = 132406
Num. of grids overlapping with atom   10 = 132420
Num. of grids overlapping with atom   11 = 132406
Num. of grids overlapping with atom   12 = 132420
Num. of grids overlapping with atom   13 = 132406
Num. of grids overlapping with atom   14 = 132420
Num. of grids overlapping with atom   15 = 132406
Num. of grids overlapping with atom   16 = 132420
Num. of grids overlapping with atom   17 = 132420
Num. of grids overlapping with atom   18 = 132428
Num. of grids overlapping with atom   19 = 132420
Num. of grids overlapping with atom   20 = 132428
     ..........
     ......


*******************************************************
             SCF calculation at MD = 1                
*******************************************************

<MD= 1>  Calculation of the overlap matrix
<MD= 1>  Calculation of the nonlocal matrix
<MD= 1>  Calculation of the VNA projector matrix

******************* MD= 1  SCF= 1 *******************
<Band>  Solving the eigenvalue problem...
 KGrids1:  -0.43750  -0.31250  -0.18750  -0.06250   0.06250   0.18750   0.31250   0.43750 
 KGrids2:  -0.43750  -0.31250  -0.18750  -0.06250   0.06250   0.18750   0.31250   0.43750 
 KGrids3:   0.00000 
<Band_DFT>  Eigen, time=23.204409
<Band_DFT>  DM, time=0.000007
    1    C  MulP   1.9970  1.9970 sum   3.9941
    2    C  MulP   1.9969  1.9969 sum   3.9939
    3    C  MulP   1.9998  1.9998 sum   3.9997
    4    C  MulP   1.9970  1.9970 sum   3.9940
    5    C  MulP   1.9975  1.9975 sum   3.9950
    6    C  MulP   1.9966  1.9966 sum   3.9932
    7    C  MulP   1.9968  1.9968 sum   3.9936
    8    C  MulP   1.9968  1.9968 sum   3.9937
    9    C  MulP   1.9969  1.9969 sum   3.9937
   10    C  MulP   1.9970  1.9970 sum   3.9939
   11    C  MulP   2.0002  2.0002 sum   4.0005
   12    C  MulP   2.0015  2.0015 sum   4.0031
   13    C  MulP   1.9969  1.9969 sum   3.9937
   14    C  MulP   1.9969  1.9969 sum   3.9938
   15    C  MulP   1.9973  1.9973 sum   3.9946
   16    C  MulP   1.9968  1.9968 sum   3.9936
   17    C  MulP   1.9971  1.9971 sum   3.9942
   18    C  MulP   1.9971  1.9971 sum   3.9942
   19    C  MulP   1.9985  1.9985 sum   3.9971
   20    C  MulP   2.0180  2.0180 sum   4.0360
     ..........
     ......

 Sum of MulP: up   =   259.50000 down          =   259.50000
              total=   519.00000 ideal(neutral)=   519.00000
<DFT>  Total Spin Moment (muB) =  0.000000000000
<DFT>  Mixing_weight= 0.050000000000
<DFT>  Uele   = -211.622796146003  dUele     =   1.000000000000
<DFT>  NormRD =    1.000000000000  Criterion =   0.000000010000

******************* MD= 1  SCF= 2 *******************
<Poisson>  Poisson's equation using FFT...
<Set_Hamiltonian>  Hamiltonian matrix for VNA+dVH+Vxc...
<Band>  Solving the eigenvalue problem...
 KGrids1:  -0.43750  -0.31250  -0.18750  -0.06250   0.06250   0.18750   0.31250   0.43750 
 KGrids2:  -0.43750  -0.31250  -0.18750  -0.06250   0.06250   0.18750   0.31250   0.43750 
 KGrids3:   0.00000 
<Band_DFT>  Eigen, time=13.538055
<Band_DFT>  DM, time=0.000001
    1    C  MulP   1.9970  1.9970 sum   3.9941
    2    C  MulP   1.9969  1.9969 sum   3.9939
    3    C  MulP   1.9998  1.9998 sum   3.9997
    4    C  MulP   1.9970  1.9970 sum   3.9940
    5    C  MulP   1.9975  1.9975 sum   3.9950
    6    C  MulP   1.9966  1.9966 sum   3.9932
    7    C  MulP   1.9968  1.9968 sum   3.9936
    8    C  MulP   1.9968  1.9968 sum   3.9937
    9    C  MulP   1.9969  1.9969 sum   3.9937
   10    C  MulP   1.9970  1.9970 sum   3.9939
   11    C  MulP   2.0002  2.0002 sum   4.0005
   12    C  MulP   2.0015  2.0015 sum   4.0031
   13    C  MulP   1.9969  1.9969 sum   3.9937
   14    C  MulP   1.9969  1.9969 sum   3.9938
   15    C  MulP   1.9973  1.9973 sum   3.9946
   16    C  MulP   1.9968  1.9968 sum   3.9936
   17    C  MulP   1.9971  1.9971 sum   3.9942
   18    C  MulP   1.9971  1.9971 sum   3.9942
   19    C  MulP   1.9985  1.9985 sum   3.9971
   20    C  MulP   2.0180  2.0180 sum   4.0360
     ..........
     ......

 Sum of MulP: up   =   259.50000 down          =   259.50000
              total=   519.00000 ideal(neutral)=   519.00000
<DFT>  Total Spin Moment (muB) =  0.000000000000
<DFT>  Mixing_weight= 0.010000000000
<DFT>  Uele   = -211.622796146003  dUele     =   0.000000000000
<DFT>  NormRD =   10.063264228219  Criterion =   0.000000010000

******************* MD= 1  SCF= 3 *******************
<Poisson>  Poisson's equation using FFT...
<Set_Hamiltonian>  Hamiltonian matrix for VNA+dVH+Vxc...
<Band>  Solving the eigenvalue problem...
 KGrids1:  -0.43750  -0.31250  -0.18750  -0.06250   0.06250   0.18750   0.31250   0.43750 
 KGrids2:  -0.43750  -0.31250  -0.18750  -0.06250   0.06250   0.18750   0.31250   0.43750 
 KGrids3:   0.00000 
<Band_DFT>  Eigen, time=13.530711
<Band_DFT>  DM, time=0.000000
    1    C  MulP   1.9971  1.9971 sum   3.9942
    2    C  MulP   1.9970  1.9970 sum   3.9940
    3    C  MulP   1.9998  1.9998 sum   3.9997
    4    C  MulP   1.9971  1.9971 sum   3.9942
    5    C  MulP   1.9976  1.9976 sum   3.9951
    6    C  MulP   1.9967  1.9967 sum   3.9933
    7    C  MulP   1.9969  1.9969 sum   3.9938
    8    C  MulP   1.9969  1.9969 sum   3.9938
    9    C  MulP   1.9969  1.9969 sum   3.9939
   10    C  MulP   1.9970  1.9970 sum   3.9941
   11    C  MulP   2.0002  2.0002 sum   4.0004
   12    C  MulP   2.0015  2.0015 sum   4.0030
   13    C  MulP   1.9969  1.9969 sum   3.9939
   14    C  MulP   1.9970  1.9970 sum   3.9939
   15    C  MulP   1.9974  1.9974 sum   3.9947
   16    C  MulP   1.9969  1.9969 sum   3.9938
   17    C  MulP   1.9972  1.9972 sum   3.9944
   18    C  MulP   1.9972  1.9972 sum   3.9943
   19    C  MulP   1.9986  1.9986 sum   3.9971
   20    C  MulP   2.0176  2.0176 sum   4.0351
     ..........
     ......

 Sum of MulP: up   =   259.50000 down          =   259.50000
              total=   519.00000 ideal(neutral)=   519.00000
<DFT>  Total Spin Moment (muB) =  0.000000000000
<DFT>  Mixing_weight= 0.300000000000
<DFT>  Uele   = -212.002952673309  dUele     =   0.380156527306
<DFT>  NormRD =    9.943491063044  Criterion =   0.000000010000

******************* MD= 1  SCF= 4 *******************
<Poisson>  Poisson's equation using FFT...
<Set_Hamiltonian>  Hamiltonian matrix for VNA+dVH+Vxc...
<Band>  Solving the eigenvalue problem...
 KGrids1:  -0.43750  -0.31250  -0.18750  -0.06250   0.06250   0.18750   0.31250   0.43750 
 KGrids2:  -0.43750  -0.31250  -0.18750  -0.06250   0.06250   0.18750   0.31250   0.43750 
 KGrids3:   0.00000 
<Band_DFT>  Eigen, time=13.800363
<Band_DFT>  DM, time=0.000000
    1    C  MulP   1.9997  1.9997 sum   3.9993
    2    C  MulP   1.9999  1.9999 sum   3.9999
    3    C  MulP   2.0006  2.0006 sum   4.0012
    4    C  MulP   2.0002  2.0002 sum   4.0004
    5    C  MulP   2.0004  2.0004 sum   4.0008
    6    C  MulP   1.9999  1.9999 sum   3.9997
    7    C  MulP   1.9997  1.9997 sum   3.9994
    8    C  MulP   2.0001  2.0001 sum   4.0003
    9    C  MulP   1.9998  1.9998 sum   3.9996
   10    C  MulP   2.0002  2.0002 sum   4.0004
   11    C  MulP   1.9982  1.9982 sum   3.9964
   12    C  MulP   2.0005  2.0005 sum   4.0010
   13    C  MulP   2.0001  2.0001 sum   4.0002
   14    C  MulP   1.9999  1.9999 sum   3.9999
   15    C  MulP   2.0003  2.0003 sum   4.0007
   16    C  MulP   1.9997  1.9997 sum   3.9994
   17    C  MulP   2.0002  2.0002 sum   4.0003
   18    C  MulP   1.9985  1.9985 sum   3.9971
   19    C  MulP   1.9995  1.9995 sum   3.9990
   20    C  MulP   1.9988  1.9988 sum   3.9977
     ..........
     ......

 Sum of MulP: up   =   259.50000 down          =   259.50000
              total=   519.00000 ideal(neutral)=   519.00000
<DFT>  Total Spin Moment (muB) =  0.000000000000
<DFT>  Mixing_weight= 0.300000000000
<DFT>  Uele   = -223.278250509345  dUele     =  11.275297836036
<DFT>  NormRD =    6.510376175635  Criterion =   0.000000010000

******************* MD= 1  SCF= 5 *******************
<Poisson>  Poisson's equation using FFT...
<Set_Hamiltonian>  Hamiltonian matrix for VNA+dVH+Vxc...
<Band>  Solving the eigenvalue problem...
 KGrids1:  -0.43750  -0.31250  -0.18750  -0.06250   0.06250   0.18750   0.31250   0.43750 
 KGrids2:  -0.43750  -0.31250  -0.18750  -0.06250   0.06250   0.18750   0.31250   0.43750 
 KGrids3:   0.00000 
<Band_DFT>  Eigen, time=13.511379
<Band_DFT>  DM, time=0.000000
    1    C  MulP   1.9997  1.9997 sum   3.9993
    2    C  MulP   1.9994  1.9994 sum   3.9989
    3    C  MulP   2.0002  2.0002 sum   4.0005
    4    C  MulP   1.9995  1.9995 sum   3.9990
    5    C  MulP   1.9999  1.9999 sum   3.9998
    6    C  MulP   1.9996  1.9996 sum   3.9992
    7    C  MulP   1.9996  1.9996 sum   3.9993
    8    C  MulP   1.9997  1.9997 sum   3.9993
    9    C  MulP   1.9997  1.9997 sum   3.9994
   10    C  MulP   1.9995  1.9995 sum   3.9991
   11    C  MulP   1.9997  1.9997 sum   3.9993
   12    C  MulP   2.0004  2.0004 sum   4.0008
   13    C  MulP   1.9995  1.9995 sum   3.9990
   14    C  MulP   1.9997  1.9997 sum   3.9993
   15    C  MulP   1.9999  1.9999 sum   3.9998
   16    C  MulP   1.9996  1.9996 sum   3.9993
   17    C  MulP   1.9998  1.9998 sum   3.9995
   18    C  MulP   1.9991  1.9991 sum   3.9983
   19    C  MulP   2.0001  2.0001 sum   4.0002
   20    C  MulP   2.0064  2.0064 sum   4.0128
     ..........
     ......

 Sum of MulP: up   =   259.50000 down          =   259.50000
              total=   519.00000 ideal(neutral)=   519.00000
<DFT>  Total Spin Moment (muB) =  0.000000000000
<DFT>  Mixing_weight= 0.300000000000
<DFT>  Uele   = -230.831828052922  dUele     =   7.553577543577
<DFT>  NormRD =    4.401982511295  Criterion =   0.000000010000

******************* MD= 1  SCF= 6 *******************
<Poisson>  Poisson's equation using FFT...
<Set_Hamiltonian>  Hamiltonian matrix for VNA+dVH+Vxc...
<Band>  Solving the eigenvalue problem...
 KGrids1:  -0.43750  -0.31250  -0.18750  -0.06250   0.06250   0.18750   0.31250   0.43750 
 KGrids2:  -0.43750  -0.31250  -0.18750  -0.06250   0.06250   0.18750   0.31250   0.43750 
 KGrids3:   0.00000 
<Band_DFT>  Eigen, time=13.528379
<Band_DFT>  DM, time=0.000000
    1    C  MulP   1.9997  1.9997 sum   3.9995
    2    C  MulP   1.9996  1.9996 sum   3.9992
    3    C  MulP   2.0003  2.0003 sum   4.0006
    4    C  MulP   1.9996  1.9996 sum   3.9992
    5    C  MulP   1.9999  1.9999 sum   3.9999
    6    C  MulP   1.9997  1.9997 sum   3.9993
    7    C  MulP   1.9997  1.9997 sum   3.9995
    8    C  MulP   1.9998  1.9998 sum   3.9995
    9    C  MulP   1.9998  1.9998 sum   3.9997
   10    C  MulP   1.9997  1.9997 sum   3.9995
   11    C  MulP   1.9997  1.9997 sum   3.9995
   12    C  MulP   2.0003  2.0003 sum   4.0007
   13    C  MulP   1.9997  1.9997 sum   3.9994
   14    C  MulP   1.9997  1.9997 sum   3.9995
   15    C  MulP   2.0000  2.0000 sum   4.0000
   16    C  MulP   1.9997  1.9997 sum   3.9995
   17    C  MulP   1.9999  1.9999 sum   3.9998
   18    C  MulP   1.9994  1.9994 sum   3.9988
   19    C  MulP   2.0007  2.0007 sum   4.0015
   20    C  MulP   2.0052  2.0052 sum   4.0103
     ..........
     ......

 Sum of MulP: up   =   259.50000 down          =   259.50000
              total=   519.00000 ideal(neutral)=   519.00000
<DFT>  Total Spin Moment (muB) =  0.000000000000
<DFT>  Mixing_weight= 0.300000000000
<DFT>  Uele   = -235.728876170175  dUele     =   4.897048117253
<DFT>  NormRD =    2.998445120868  Criterion =   0.000000010000

******************* MD= 1  SCF= 7 *******************
<Poisson>  Poisson's equation using FFT...
<Set_Hamiltonian>  Hamiltonian matrix for VNA+dVH+Vxc...
<Band>  Solving the eigenvalue problem...
 KGrids1:  -0.43750  -0.31250  -0.18750  -0.06250   0.06250   0.18750   0.31250   0.43750 
 KGrids2:  -0.43750  -0.31250  -0.18750  -0.06250   0.06250   0.18750   0.31250   0.43750 
 KGrids3:   0.00000 
<Band_DFT>  Eigen, time=13.513349
<Band_DFT>  DM, time=0.000000
    1    C  MulP   1.9997  1.9997 sum   3.9995
    2    C  MulP   1.9996  1.9996 sum   3.9992
    3    C  MulP   2.0003  2.0003 sum   4.0005
    4    C  MulP   1.9996  1.9996 sum   3.9992
    5    C  MulP   1.9999  1.9999 sum   3.9998
    6    C  MulP   1.9996  1.9996 sum   3.9993
    7    C  MulP   1.9997  1.9997 sum   3.9995
    8    C  MulP   1.9997  1.9997 sum   3.9995
    9    C  MulP   1.9998  1.9998 sum   3.9997
   10    C  MulP   1.9997  1.9997 sum   3.9995
   11    C  MulP   1.9998  1.9998 sum   3.9996
   12    C  MulP   2.0003  2.0003 sum   4.0007
   13    C  MulP   1.9997  1.9997 sum   3.9994
   14    C  MulP   1.9997  1.9997 sum   3.9995
   15    C  MulP   2.0000  2.0000 sum   3.9999
   16    C  MulP   1.9997  1.9997 sum   3.9995
   17    C  MulP   1.9999  1.9999 sum   3.9997
   18    C  MulP   1.9995  1.9995 sum   3.9990
   19    C  MulP   2.0010  2.0010 sum   4.0020
   20    C  MulP   2.0051  2.0051 sum   4.0102
     ..........
     ......

 Sum of MulP: up   =   259.50000 down          =   259.50000
              total=   519.00000 ideal(neutral)=   519.00000
<DFT>  Total Spin Moment (muB) =  0.000000000000
<DFT>  Mixing_weight= 0.300000000000
<DFT>  Uele   = -238.987585239903  dUele     =   3.258709069728
<DFT>  NormRD =    2.052633995320  Criterion =   0.000000010000

******************* MD= 1  SCF= 8 *******************
<Poisson>  Poisson's equation using FFT...
<Set_Hamiltonian>  Hamiltonian matrix for VNA+dVH+Vxc...
<Band>  Solving the eigenvalue problem...
 KGrids1:  -0.43750  -0.31250  -0.18750  -0.06250   0.06250   0.18750   0.31250   0.43750 
 KGrids2:  -0.43750  -0.31250  -0.18750  -0.06250   0.06250   0.18750   0.31250   0.43750 
 KGrids3:   0.00000 
<Band_DFT>  Eigen, time=13.521425
<Band_DFT>  DM, time=0.000001
    1    C  MulP   1.9998  1.9998 sum   3.9995
    2    C  MulP   1.9996  1.9996 sum   3.9993
    3    C  MulP   2.0003  2.0003 sum   4.0006
    4    C  MulP   1.9996  1.9996 sum   3.9993
    5    C  MulP   1.9999  1.9999 sum   3.9999
    6    C  MulP   1.9997  1.9997 sum   3.9993
    7    C  MulP   1.9998  1.9998 sum   3.9995
    8    C  MulP   1.9997  1.9997 sum   3.9995
    9    C  MulP   1.9999  1.9999 sum   3.9997
   10    C  MulP   1.9998  1.9998 sum   3.9995
   11    C  MulP   1.9998  1.9998 sum   3.9996
   12    C  MulP   2.0004  2.0004 sum   4.0007
   13    C  MulP   1.9998  1.9998 sum   3.9995
   14    C  MulP   1.9998  1.9998 sum   3.9995
   15    C  MulP   2.0000  2.0000 sum   4.0000
   16    C  MulP   1.9998  1.9998 sum   3.9995
   17    C  MulP   1.9999  1.9999 sum   3.9998
   18    C  MulP   1.9995  1.9995 sum   3.9991
   19    C  MulP   2.0011  2.0011 sum   4.0022
   20    C  MulP   2.0050  2.0050 sum   4.0100
     ..........
     ......

 Sum of MulP: up   =   259.50000 down          =   259.50000
              total=   519.00000 ideal(neutral)=   519.00000
<DFT>  Total Spin Moment (muB) =  0.000000000000
<DFT>  Mixing_weight= 0.300000000000
<DFT>  Uele   = -241.207353870778  dUele     =   2.219768630875
<DFT>  NormRD =    1.411640950208  Criterion =   0.000000010000

******************* MD= 1  SCF= 9 *******************
<Poisson>  Poisson's equation using FFT...
<Set_Hamiltonian>  Hamiltonian matrix for VNA+dVH+Vxc...
<Band>  Solving the eigenvalue problem...
 KGrids1:  -0.43750  -0.31250  -0.18750  -0.06250   0.06250   0.18750   0.31250   0.43750 
 KGrids2:  -0.43750  -0.31250  -0.18750  -0.06250   0.06250   0.18750   0.31250   0.43750 
 KGrids3:   0.00000 
<Band_DFT>  Eigen, time=13.510005
<Band_DFT>  DM, time=0.000001
    1    C  MulP   1.9998  1.9998 sum   3.9995
    2    C  MulP   1.9996  1.9996 sum   3.9993
    3    C  MulP   2.0003  2.0003 sum   4.0006
    4    C  MulP   1.9996  1.9996 sum   3.9993
    5    C  MulP   1.9999  1.9999 sum   3.9999
    6    C  MulP   1.9997  1.9997 sum   3.9993
    7    C  MulP   1.9998  1.9998 sum   3.9995
    8    C  MulP   1.9997  1.9997 sum   3.9995
    9    C  MulP   1.9999  1.9999 sum   3.9997
   10    C  MulP   1.9998  1.9998 sum   3.9995
   11    C  MulP   1.9998  1.9998 sum   3.9997
   12    C  MulP   2.0004  2.0004 sum   4.0007
   13    C  MulP   1.9998  1.9998 sum   3.9995
   14    C  MulP   1.9998  1.9998 sum   3.9995
   15    C  MulP   2.0000  2.0000 sum   4.0000
   16    C  MulP   1.9998  1.9998 sum   3.9995
   17    C  MulP   1.9999  1.9999 sum   3.9998
   18    C  MulP   1.9995  1.9995 sum   3.9991
   19    C  MulP   2.0011  2.0011 sum   4.0022
   20    C  MulP   2.0050  2.0050 sum   4.0100
     ..........
     ......

 Sum of MulP: up   =   259.50000 down          =   259.50000
              total=   519.00000 ideal(neutral)=   519.00000
<DFT>  Total Spin Moment (muB) =  0.000000000000
<DFT>  Mixing_weight= 0.300000000000
<DFT>  Uele   = -242.765677996133  dUele     =   1.558324125355
<DFT>  NormRD =    0.974509693139  Criterion =   0.000000010000

******************* MD= 1  SCF=10 *******************
<Poisson>  Poisson's equation using FFT...
<Set_Hamiltonian>  Hamiltonian matrix for VNA+dVH+Vxc...
<Band>  Solving the eigenvalue problem...
 KGrids1:  -0.43750  -0.31250  -0.18750  -0.06250   0.06250   0.18750   0.31250   0.43750 
 KGrids2:  -0.43750  -0.31250  -0.18750  -0.06250   0.06250   0.18750   0.31250   0.43750 
 KGrids3:   0.00000 
<Band_DFT>  Eigen, time=13.505852
<Band_DFT>  DM, time=0.000000
    1    C  MulP   1.9998  1.9998 sum   3.9995
    2    C  MulP   1.9996  1.9996 sum   3.9993
    3    C  MulP   2.0003  2.0003 sum   4.0006
    4    C  MulP   1.9996  1.9996 sum   3.9993
    5    C  MulP   1.9999  1.9999 sum   3.9999
    6    C  MulP   1.9997  1.9997 sum   3.9993
    7    C  MulP   1.9998  1.9998 sum   3.9995
    8    C  MulP   1.9997  1.9997 sum   3.9995
    9    C  MulP   1.9999  1.9999 sum   3.9997
   10    C  MulP   1.9998  1.9998 sum   3.9996
   11    C  MulP   1.9998  1.9998 sum   3.9997
   12    C  MulP   2.0004  2.0004 sum   4.0007
   13    C  MulP   1.9998  1.9998 sum   3.9995
   14    C  MulP   1.9998  1.9998 sum   3.9995
   15    C  MulP   2.0000  2.0000 sum   4.0000
   16    C  MulP   1.9998  1.9998 sum   3.9995
   17    C  MulP   1.9999  1.9999 sum   3.9998
   18    C  MulP   1.9995  1.9995 sum   3.9991
   19    C  MulP   2.0011  2.0011 sum   4.0023
   20    C  MulP   2.0050  2.0050 sum   4.0100
     ..........
     ......

 Sum of MulP: up   =   259.50000 down          =   259.50000
              total=   519.00000 ideal(neutral)=   519.00000
<DFT>  Total Spin Moment (muB) =  0.000000000000
<DFT>  Mixing_weight= 0.300000000000
<DFT>  Uele   = -243.892346281605  dUele     =   1.126668285472
<DFT>  NormRD =    0.675050209434  Criterion =   0.000000010000

******************* MD= 1  SCF=11 *******************
<Poisson>  Poisson's equation using FFT...
<Set_Hamiltonian>  Hamiltonian matrix for VNA+dVH+Vxc...
<Band>  Solving the eigenvalue problem...
 KGrids1:  -0.43750  -0.31250  -0.18750  -0.06250   0.06250   0.18750   0.31250   0.43750 
 KGrids2:  -0.43750  -0.31250  -0.18750  -0.06250   0.06250   0.18750   0.31250   0.43750 
 KGrids3:   0.00000 
<Band_DFT>  Eigen, time=13.526406
<Band_DFT>  DM, time=0.000000
    1    C  MulP   1.9998  1.9998 sum   3.9995
    2    C  MulP   1.9996  1.9996 sum   3.9993
    3    C  MulP   2.0003  2.0003 sum   4.0005
    4    C  MulP   1.9996  1.9996 sum   3.9993
    5    C  MulP   1.9999  1.9999 sum   3.9999
    6    C  MulP   1.9996  1.9996 sum   3.9993
    7    C  MulP   1.9998  1.9998 sum   3.9995
    8    C  MulP   1.9997  1.9997 sum   3.9995
    9    C  MulP   1.9999  1.9999 sum   3.9997
   10    C  MulP   1.9998  1.9998 sum   3.9996
   11    C  MulP   1.9998  1.9998 sum   3.9997
   12    C  MulP   2.0004  2.0004 sum   4.0007
   13    C  MulP   1.9998  1.9998 sum   3.9995
   14    C  MulP   1.9998  1.9998 sum   3.9995
   15    C  MulP   2.0000  2.0000 sum   4.0000
   16    C  MulP   1.9998  1.9998 sum   3.9995
   17    C  MulP   1.9999  1.9999 sum   3.9998
   18    C  MulP   1.9995  1.9995 sum   3.9991
   19    C  MulP   2.0011  2.0011 sum   4.0023
   20    C  MulP   2.0050  2.0050 sum   4.0100
     ..........
     ......

 Sum of MulP: up   =   259.50000 down          =   259.50000
              total=   519.00000 ideal(neutral)=   519.00000
<DFT>  Total Spin Moment (muB) =  0.000000000000
<DFT>  Mixing_weight= 0.300000000000
<DFT>  Uele   = -244.732201200893  dUele     =   0.839854919288
<DFT>  NormRD =    0.469073665242  Criterion =   0.000000010000

******************* MD= 1  SCF=12 *******************
<Poisson>  Poisson's equation using FFT...
<Set_Hamiltonian>  Hamiltonian matrix for VNA+dVH+Vxc...
<Band>  Solving the eigenvalue problem...
 KGrids1:  -0.43750  -0.31250  -0.18750  -0.06250   0.06250   0.18750   0.31250   0.43750 
 KGrids2:  -0.43750  -0.31250  -0.18750  -0.06250   0.06250   0.18750   0.31250   0.43750 
 KGrids3:   0.00000 
<Band_DFT>  Eigen, time=13.502899
<Band_DFT>  DM, time=0.000001
    1    C  MulP   1.9997  1.9997 sum   3.9995
    2    C  MulP   1.9996  1.9996 sum   3.9993
    3    C  MulP   2.0003  2.0003 sum   4.0005
    4    C  MulP   1.9996  1.9996 sum   3.9993
    5    C  MulP   1.9999  1.9999 sum   3.9999
    6    C  MulP   1.9996  1.9996 sum   3.9993
    7    C  MulP   1.9998  1.9998 sum   3.9995
    8    C  MulP   1.9997  1.9997 sum   3.9995
    9    C  MulP   1.9999  1.9999 sum   3.9997
   10    C  MulP   1.9998  1.9998 sum   3.9995
   11    C  MulP   1.9998  1.9998 sum   3.9997
   12    C  MulP   2.0004  2.0004 sum   4.0007
   13    C  MulP   1.9998  1.9998 sum   3.9995
   14    C  MulP   1.9998  1.9998 sum   3.9995
   15    C  MulP   2.0000  2.0000 sum   4.0000
   16    C  MulP   1.9997  1.9997 sum   3.9995
   17    C  MulP   1.9999  1.9999 sum   3.9998
   18    C  MulP   1.9995  1.9995 sum   3.9991
   19    C  MulP   2.0011  2.0011 sum   4.0023
   20    C  MulP   2.0050  2.0050 sum   4.0100
     ..........
     ......

 Sum of MulP: up   =   259.50000 down          =   259.50000
              total=   519.00000 ideal(neutral)=   519.00000
<DFT>  Total Spin Moment (muB) =  0.000000000000
<DFT>  Mixing_weight= 0.300000000000
<DFT>  Uele   = -245.376562357825  dUele     =   0.644361156933
<DFT>  NormRD =    0.326937565275  Criterion =   0.000000010000

******************* MD= 1  SCF=13 *******************
<Poisson>  Poisson's equation using FFT...
<Set_Hamiltonian>  Hamiltonian matrix for VNA+dVH+Vxc...
<Band>  Solving the eigenvalue problem...
 KGrids1:  -0.43750  -0.31250  -0.18750  -0.06250   0.06250   0.18750   0.31250   0.43750 
 KGrids2:  -0.43750  -0.31250  -0.18750  -0.06250   0.06250   0.18750   0.31250   0.43750 
 KGrids3:   0.00000 
<Band_DFT>  Eigen, time=13.517295
<Band_DFT>  DM, time=0.000000
    1    C  MulP   1.9997  1.9997 sum   3.9995
    2    C  MulP   1.9996  1.9996 sum   3.9993
    3    C  MulP   2.0003  2.0003 sum   4.0005
    4    C  MulP   1.9996  1.9996 sum   3.9993
    5    C  MulP   1.9999  1.9999 sum   3.9999
    6    C  MulP   1.9996  1.9996 sum   3.9993
    7    C  MulP   1.9997  1.9997 sum   3.9995
    8    C  MulP   1.9997  1.9997 sum   3.9994
    9    C  MulP   1.9999  1.9999 sum   3.9997
   10    C  MulP   1.9998  1.9998 sum   3.9995
   11    C  MulP   1.9998  1.9998 sum   3.9997
   12    C  MulP   2.0004  2.0004 sum   4.0007
   13    C  MulP   1.9998  1.9998 sum   3.9995
   14    C  MulP   1.9997  1.9997 sum   3.9995
   15    C  MulP   2.0000  2.0000 sum   4.0000
   16    C  MulP   1.9997  1.9997 sum   3.9995
   17    C  MulP   1.9999  1.9999 sum   3.9998
   18    C  MulP   1.9995  1.9995 sum   3.9991
   19    C  MulP   2.0011  2.0011 sum   4.0023
   20    C  MulP   2.0050  2.0050 sum   4.0100
     ..........
     ......

 Sum of MulP: up   =   259.50000 down          =   259.50000
              total=   519.00000 ideal(neutral)=   519.00000
<DFT>  Total Spin Moment (muB) =  0.000000000000
<DFT>  Mixing_weight= 0.300000000000
<DFT>  Uele   = -245.884183397037  dUele     =   0.507621039212
<DFT>  NormRD =    0.228619319245  Criterion =   0.000000010000

******************* MD= 1  SCF=14 *******************
<Poisson>  Poisson's equation using FFT...
<Set_Hamiltonian>  Hamiltonian matrix for VNA+dVH+Vxc...
<Band>  Solving the eigenvalue problem...
 KGrids1:  -0.43750  -0.31250  -0.18750  -0.06250   0.06250   0.18750   0.31250   0.43750 
 KGrids2:  -0.43750  -0.31250  -0.18750  -0.06250   0.06250   0.18750   0.31250   0.43750 
 KGrids3:   0.00000 
<Band_DFT>  Eigen, time=13.534276
<Band_DFT>  DM, time=0.000000
    1    C  MulP   1.9997  1.9997 sum   3.9995
    2    C  MulP   1.9996  1.9996 sum   3.9993
    3    C  MulP   2.0003  2.0003 sum   4.0005
    4    C  MulP   1.9996  1.9996 sum   3.9993
    5    C  MulP   1.9999  1.9999 sum   3.9999
    6    C  MulP   1.9996  1.9996 sum   3.9993
    7    C  MulP   1.9997  1.9997 sum   3.9995
    8    C  MulP   1.9997  1.9997 sum   3.9994
    9    C  MulP   1.9998  1.9998 sum   3.9997
   10    C  MulP   1.9998  1.9998 sum   3.9995
   11    C  MulP   1.9998  1.9998 sum   3.9997
   12    C  MulP   2.0004  2.0004 sum   4.0007
   13    C  MulP   1.9998  1.9998 sum   3.9995
   14    C  MulP   1.9997  1.9997 sum   3.9995
   15    C  MulP   2.0000  2.0000 sum   4.0000
   16    C  MulP   1.9997  1.9997 sum   3.9995
   17    C  MulP   1.9999  1.9999 sum   3.9998
   18    C  MulP   1.9995  1.9995 sum   3.9991
   19    C  MulP   2.0012  2.0012 sum   4.0023
   20    C  MulP   2.0050  2.0050 sum   4.0100
     ..........
     ......

 Sum of MulP: up   =   259.50000 down          =   259.50000
              total=   519.00000 ideal(neutral)=   519.00000
<DFT>  Total Spin Moment (muB) =  0.000000000000
<DFT>  Mixing_weight= 0.300000000000
<DFT>  Uele   = -246.293474392698  dUele     =   0.409290995661
<DFT>  NormRD =    0.160490696254  Criterion =   0.000000010000

******************* MD= 1  SCF=15 *******************
<Poisson>  Poisson's equation using FFT...
<Set_Hamiltonian>  Hamiltonian matrix for VNA+dVH+Vxc...
<Band>  Solving the eigenvalue problem...
 KGrids1:  -0.43750  -0.31250  -0.18750  -0.06250   0.06250   0.18750   0.31250   0.43750 
 KGrids2:  -0.43750  -0.31250  -0.18750  -0.06250   0.06250   0.18750   0.31250   0.43750 
 KGrids3:   0.00000 
<Band_DFT>  Eigen, time=13.502673
<Band_DFT>  DM, time=0.000000
    1    C  MulP   1.9997  1.9997 sum   3.9995
    2    C  MulP   1.9996  1.9996 sum   3.9993
    3    C  MulP   2.0003  2.0003 sum   4.0005
    4    C  MulP   1.9996  1.9996 sum   3.9993
    5    C  MulP   1.9999  1.9999 sum   3.9999
    6    C  MulP   1.9996  1.9996 sum   3.9993
    7    C  MulP   1.9997  1.9997 sum   3.9995
    8    C  MulP   1.9997  1.9997 sum   3.9994
    9    C  MulP   1.9998  1.9998 sum   3.9997
   10    C  MulP   1.9998  1.9998 sum   3.9995
   11    C  MulP   1.9998  1.9998 sum   3.9997
   12    C  MulP   2.0004  2.0004 sum   4.0007
   13    C  MulP   1.9998  1.9998 sum   3.9995
   14    C  MulP   1.9997  1.9997 sum   3.9995
   15    C  MulP   2.0000  2.0000 sum   4.0000
   16    C  MulP   1.9997  1.9997 sum   3.9995
   17    C  MulP   1.9999  1.9999 sum   3.9998
   18    C  MulP   1.9995  1.9995 sum   3.9991
   19    C  MulP   2.0012  2.0012 sum   4.0023
   20    C  MulP   2.0050  2.0050 sum   4.0100
     ..........
     ......

 Sum of MulP: up   =   259.50000 down          =   259.50000
              total=   519.00000 ideal(neutral)=   519.00000
<DFT>  Total Spin Moment (muB) =  0.000000000000
<DFT>  Mixing_weight= 0.030000000000
<DFT>  Uele   = -246.630027042759  dUele     =   0.336552650061
<DFT>  NormRD =    0.114189902085  Criterion =   0.000000010000

******************* MD= 1  SCF=16 *******************
<Poisson>  Poisson's equation using FFT...
<Set_Hamiltonian>  Hamiltonian matrix for VNA+dVH+Vxc...
<Band>  Solving the eigenvalue problem...
 KGrids1:  -0.43750  -0.31250  -0.18750  -0.06250   0.06250   0.18750   0.31250   0.43750 
 KGrids2:  -0.43750  -0.31250  -0.18750  -0.06250   0.06250   0.18750   0.31250   0.43750 
 KGrids3:   0.00000 
<Band_DFT>  Eigen, time=13.519309
<Band_DFT>  DM, time=0.000000
    1    C  MulP   1.9997  1.9997 sum   3.9994
    2    C  MulP   1.9996  1.9996 sum   3.9992
    3    C  MulP   2.0002  2.0002 sum   4.0004
    4    C  MulP   1.9996  1.9996 sum   3.9992
    5    C  MulP   1.9999  1.9999 sum   3.9998
    6    C  MulP   1.9996  1.9996 sum   3.9992
    7    C  MulP   1.9997  1.9997 sum   3.9994
    8    C  MulP   1.9997  1.9997 sum   3.9993
    9    C  MulP   1.9998  1.9998 sum   3.9996
   10    C  MulP   1.9997  1.9997 sum   3.9995
   11    C  MulP   1.9998  1.9998 sum   3.9997
   12    C  MulP   2.0003  2.0003 sum   4.0006
   13    C  MulP   1.9997  1.9997 sum   3.9994
   14    C  MulP   1.9997  1.9997 sum   3.9994
   15    C  MulP   1.9999  1.9999 sum   3.9999
   16    C  MulP   1.9997  1.9997 sum   3.9994
   17    C  MulP   1.9999  1.9999 sum   3.9997
   18    C  MulP   1.9996  1.9996 sum   3.9991
   19    C  MulP   2.0012  2.0012 sum   4.0024
   20    C  MulP   2.0051  2.0051 sum   4.0102
     ..........
     ......

 Sum of MulP: up   =   259.50000 down          =   259.50000
              total=   519.00000 ideal(neutral)=   519.00000
<DFT>  Total Spin Moment (muB) =  0.000000000000
<DFT>  Mixing_weight= 0.030000000000
<DFT>  Uele   = -248.552194647096  dUele     =   1.922167604337
<DFT>  NormRD =    0.011671256179  Criterion =   0.000000010000

******************* MD= 1  SCF=17 *******************
<Poisson>  Poisson's equation using FFT...
<Set_Hamiltonian>  Hamiltonian matrix for VNA+dVH+Vxc...
<Band>  Solving the eigenvalue problem...
 KGrids1:  -0.43750  -0.31250  -0.18750  -0.06250   0.06250   0.18750   0.31250   0.43750 
 KGrids2:  -0.43750  -0.31250  -0.18750  -0.06250   0.06250   0.18750   0.31250   0.43750 
 KGrids3:   0.00000 
<Band_DFT>  Eigen, time=13.525126
<Band_DFT>  DM, time=0.000001
    1    C  MulP   1.9999  1.9999 sum   3.9997
    2    C  MulP   1.9998  1.9998 sum   3.9995
    3    C  MulP   2.0004  2.0004 sum   4.0008
    4    C  MulP   1.9998  1.9998 sum   3.9995
    5    C  MulP   2.0001  2.0001 sum   4.0002
    6    C  MulP   1.9998  1.9998 sum   3.9995
    7    C  MulP   1.9998  1.9998 sum   3.9997
    8    C  MulP   1.9999  1.9999 sum   3.9997
    9    C  MulP   1.9999  1.9999 sum   3.9999
   10    C  MulP   1.9999  1.9999 sum   3.9997
   11    C  MulP   1.9997  1.9997 sum   3.9995
   12    C  MulP   2.0004  2.0004 sum   4.0008
   13    C  MulP   1.9999  1.9999 sum   3.9998
   14    C  MulP   1.9999  1.9999 sum   3.9997
   15    C  MulP   2.0001  2.0001 sum   4.0002
   16    C  MulP   1.9998  1.9998 sum   3.9997
   17    C  MulP   2.0000  2.0000 sum   3.9999
   18    C  MulP   1.9995  1.9995 sum   3.9989
   19    C  MulP   2.0010  2.0010 sum   4.0020
   20    C  MulP   2.0045  2.0045 sum   4.0089
     ..........
     ......

 Sum of MulP: up   =   259.50000 down          =   259.50000
              total=   519.00000 ideal(neutral)=   519.00000
<DFT>  Total Spin Moment (muB) =  0.000000000000
<DFT>  Mixing_weight= 0.030000000000
<DFT>  Uele   = -248.715959145670  dUele     =   0.163764498574
<DFT>  NormRD =    0.017788047358  Criterion =   0.000000010000

******************* MD= 1  SCF=18 *******************
<Poisson>  Poisson's equation using FFT...
<Set_Hamiltonian>  Hamiltonian matrix for VNA+dVH+Vxc...
<Band>  Solving the eigenvalue problem...
 KGrids1:  -0.43750  -0.31250  -0.18750  -0.06250   0.06250   0.18750   0.31250   0.43750 
 KGrids2:  -0.43750  -0.31250  -0.18750  -0.06250   0.06250   0.18750   0.31250   0.43750 
 KGrids3:   0.00000 
<Band_DFT>  Eigen, time=13.517248
<Band_DFT>  DM, time=0.000000
    1    C  MulP   1.9997  1.9997 sum   3.9994
    2    C  MulP   1.9996  1.9996 sum   3.9991
    3    C  MulP   2.0002  2.0002 sum   4.0004
    4    C  MulP   1.9996  1.9996 sum   3.9991
    5    C  MulP   1.9999  1.9999 sum   3.9997
    6    C  MulP   1.9996  1.9996 sum   3.9992
    7    C  MulP   1.9997  1.9997 sum   3.9994
    8    C  MulP   1.9997  1.9997 sum   3.9993
    9    C  MulP   1.9998  1.9998 sum   3.9996
   10    C  MulP   1.9997  1.9997 sum   3.9994
   11    C  MulP   1.9999  1.9999 sum   3.9997
   12    C  MulP   2.0004  2.0004 sum   4.0007
   13    C  MulP   1.9997  1.9997 sum   3.9994
   14    C  MulP   1.9997  1.9997 sum   3.9994
   15    C  MulP   1.9999  1.9999 sum   3.9998
   16    C  MulP   1.9997  1.9997 sum   3.9994
   17    C  MulP   1.9998  1.9998 sum   3.9997
   18    C  MulP   1.9995  1.9995 sum   3.9991
   19    C  MulP   2.0012  2.0012 sum   4.0024
   20    C  MulP   2.0053  2.0053 sum   4.0106
     ..........
     ......

 Sum of MulP: up   =   259.50000 down          =   259.50000
              total=   519.00000 ideal(neutral)=   519.00000
<DFT>  Total Spin Moment (muB) =  0.000000000000
<DFT>  Mixing_weight= 0.030000000000
<DFT>  Uele   = -248.749454951567  dUele     =   0.033495805897
<DFT>  NormRD =    0.007993918390  Criterion =   0.000000010000

******************* MD= 1  SCF=19 *******************
<Poisson>  Poisson's equation using FFT...
<Set_Hamiltonian>  Hamiltonian matrix for VNA+dVH+Vxc...
<Band>  Solving the eigenvalue problem...
 KGrids1:  -0.43750  -0.31250  -0.18750  -0.06250   0.06250   0.18750   0.31250   0.43750 
 KGrids2:  -0.43750  -0.31250  -0.18750  -0.06250   0.06250   0.18750   0.31250   0.43750 
 KGrids3:   0.00000 
<Band_DFT>  Eigen, time=13.515670
<Band_DFT>  DM, time=0.000001
    1    C  MulP   1.9997  1.9997 sum   3.9994
    2    C  MulP   1.9996  1.9996 sum   3.9992
    3    C  MulP   2.0002  2.0002 sum   4.0004
    4    C  MulP   1.9996  1.9996 sum   3.9992
    5    C  MulP   1.9999  1.9999 sum   3.9998
    6    C  MulP   1.9996  1.9996 sum   3.9993
    7    C  MulP   1.9997  1.9997 sum   3.9995
    8    C  MulP   1.9997  1.9997 sum   3.9994
    9    C  MulP   1.9998  1.9998 sum   3.9997
   10    C  MulP   1.9998  1.9998 sum   3.9995
   11    C  MulP   1.9998  1.9998 sum   3.9996
   12    C  MulP   2.0002  2.0002 sum   4.0005
   13    C  MulP   1.9997  1.9997 sum   3.9994
   14    C  MulP   1.9997  1.9997 sum   3.9994
   15    C  MulP   1.9999  1.9999 sum   3.9999
   16    C  MulP   1.9997  1.9997 sum   3.9995
   17    C  MulP   1.9999  1.9999 sum   3.9998
   18    C  MulP   1.9996  1.9996 sum   3.9992
   19    C  MulP   2.0012  2.0012 sum   4.0025
   20    C  MulP   2.0049  2.0049 sum   4.0098
     ..........
     ......

 Sum of MulP: up   =   259.50000 down          =   259.50000
              total=   519.00000 ideal(neutral)=   519.00000
<DFT>  Total Spin Moment (muB) =  0.000000000000
<DFT>  Mixing_weight= 0.030000000000
<DFT>  Uele   = -248.825766079554  dUele     =   0.076311127987
<DFT>  NormRD =    0.003994825026  Criterion =   0.000000010000

******************* MD= 1  SCF=20 *******************
<Poisson>  Poisson's equation using FFT...
<Set_Hamiltonian>  Hamiltonian matrix for VNA+dVH+Vxc...
<Band>  Solving the eigenvalue problem...
 KGrids1:  -0.43750  -0.31250  -0.18750  -0.06250   0.06250   0.18750   0.31250   0.43750 
 KGrids2:  -0.43750  -0.31250  -0.18750  -0.06250   0.06250   0.18750   0.31250   0.43750 
 KGrids3:   0.00000 
<Band_DFT>  Eigen, time=13.515908
<Band_DFT>  DM, time=0.000000
    1    C  MulP   1.9997  1.9997 sum   3.9995
    2    C  MulP   1.9996  1.9996 sum   3.9993
    3    C  MulP   2.0003  2.0003 sum   4.0005
    4    C  MulP   1.9996  1.9996 sum   3.9993
    5    C  MulP   1.9999  1.9999 sum   3.9999
    6    C  MulP   1.9996  1.9996 sum   3.9993
    7    C  MulP   1.9997  1.9997 sum   3.9995
    8    C  MulP   1.9997  1.9997 sum   3.9994
    9    C  MulP   1.9998  1.9998 sum   3.9997
   10    C  MulP   1.9998  1.9998 sum   3.9995
   11    C  MulP   1.9998  1.9998 sum   3.9996
   12    C  MulP   2.0004  2.0004 sum   4.0007
   13    C  MulP   1.9998  1.9998 sum   3.9995
   14    C  MulP   1.9997  1.9997 sum   3.9995
   15    C  MulP   2.0000  2.0000 sum   3.9999
   16    C  MulP   1.9997  1.9997 sum   3.9995
   17    C  MulP   1.9999  1.9999 sum   3.9997
   18    C  MulP   1.9995  1.9995 sum   3.9991
   19    C  MulP   2.0012  2.0012 sum   4.0023
   20    C  MulP   2.0050  2.0050 sum   4.0101
     ..........
     ......

 Sum of MulP: up   =   259.50000 down          =   259.50000
              total=   519.00000 ideal(neutral)=   519.00000
<DFT>  Total Spin Moment (muB) =  0.000000000000
<DFT>  Mixing_weight= 0.030000000000
<DFT>  Uele   = -248.841376026759  dUele     =   0.015609947205
<DFT>  NormRD =    0.001038754118  Criterion =   0.000000010000

******************* MD= 1  SCF=21 *******************
<Poisson>  Poisson's equation using FFT...
<Set_Hamiltonian>  Hamiltonian matrix for VNA+dVH+Vxc...
<Band>  Solving the eigenvalue problem...
 KGrids1:  -0.43750  -0.31250  -0.18750  -0.06250   0.06250   0.18750   0.31250   0.43750 
 KGrids2:  -0.43750  -0.31250  -0.18750  -0.06250   0.06250   0.18750   0.31250   0.43750 
 KGrids3:   0.00000 
<Band_DFT>  Eigen, time=13.519535
<Band_DFT>  DM, time=0.000000
    1    C  MulP   1.9997  1.9997 sum   3.9995
    2    C  MulP   1.9996  1.9996 sum   3.9992
    3    C  MulP   2.0002  2.0002 sum   4.0005
    4    C  MulP   1.9996  1.9996 sum   3.9992
    5    C  MulP   1.9999  1.9999 sum   3.9998
    6    C  MulP   1.9996  1.9996 sum   3.9993
    7    C  MulP   1.9997  1.9997 sum   3.9995
    8    C  MulP   1.9997  1.9997 sum   3.9994
    9    C  MulP   1.9998  1.9998 sum   3.9997
   10    C  MulP   1.9998  1.9998 sum   3.9995
   11    C  MulP   1.9998  1.9998 sum   3.9996
   12    C  MulP   2.0003  2.0003 sum   4.0006
   13    C  MulP   1.9997  1.9997 sum   3.9995
   14    C  MulP   1.9997  1.9997 sum   3.9995
   15    C  MulP   2.0000  2.0000 sum   3.9999
   16    C  MulP   1.9997  1.9997 sum   3.9995
   17    C  MulP   1.9999  1.9999 sum   3.9998
   18    C  MulP   1.9995  1.9995 sum   3.9991
   19    C  MulP   2.0012  2.0012 sum   4.0023
   20    C  MulP   2.0050  2.0050 sum   4.0100
     ..........
     ......

 Sum of MulP: up   =   259.50000 down          =   259.50000
              total=   519.00000 ideal(neutral)=   519.00000
<DFT>  Total Spin Moment (muB) =  0.000000000000
<DFT>  Mixing_weight= 0.030000000000
<DFT>  Uele   = -248.854974946308  dUele     =   0.013598919549
<DFT>  NormRD =    0.000642576258  Criterion =   0.000000010000

******************* MD= 1  SCF=22 *******************
<Poisson>  Poisson's equation using FFT...
<Set_Hamiltonian>  Hamiltonian matrix for VNA+dVH+Vxc...
<Band>  Solving the eigenvalue problem...
 KGrids1:  -0.43750  -0.31250  -0.18750  -0.06250   0.06250   0.18750   0.31250   0.43750 
 KGrids2:  -0.43750  -0.31250  -0.18750  -0.06250   0.06250   0.18750   0.31250   0.43750 
 KGrids3:   0.00000 
<Band_DFT>  Eigen, time=13.519530
<Band_DFT>  DM, time=0.000001
    1    C  MulP   1.9997  1.9997 sum   3.9995
    2    C  MulP   1.9996  1.9996 sum   3.9992
    3    C  MulP   2.0003  2.0003 sum   4.0005
    4    C  MulP   1.9996  1.9996 sum   3.9992
    5    C  MulP   1.9999  1.9999 sum   3.9998
    6    C  MulP   1.9996  1.9996 sum   3.9993
    7    C  MulP   1.9997  1.9997 sum   3.9995
    8    C  MulP   1.9997  1.9997 sum   3.9994
    9    C  MulP   1.9998  1.9998 sum   3.9997
   10    C  MulP   1.9998  1.9998 sum   3.9995
   11    C  MulP   1.9998  1.9998 sum   3.9997
   12    C  MulP   2.0003  2.0003 sum   4.0007
   13    C  MulP   1.9997  1.9997 sum   3.9995
   14    C  MulP   1.9997  1.9997 sum   3.9995
   15    C  MulP   2.0000  2.0000 sum   3.9999
   16    C  MulP   1.9997  1.9997 sum   3.9995
   17    C  MulP   1.9999  1.9999 sum   3.9997
   18    C  MulP   1.9996  1.9996 sum   3.9991
   19    C  MulP   2.0012  2.0012 sum   4.0024
   20    C  MulP   2.0050  2.0050 sum   4.0101
     ..........
     ......

 Sum of MulP: up   =   259.50000 down          =   259.50000
              total=   519.00000 ideal(neutral)=   519.00000
<DFT>  Total Spin Moment (muB) =  0.000000000000
<DFT>  Mixing_weight= 0.030000000000
<DFT>  Uele   = -248.864412921467  dUele     =   0.009437975159
<DFT>  NormRD =    0.000377469418  Criterion =   0.000000010000

******************* MD= 1  SCF=23 *******************
<Poisson>  Poisson's equation using FFT...
<Set_Hamiltonian>  Hamiltonian matrix for VNA+dVH+Vxc...
<Band>  Solving the eigenvalue problem...
 KGrids1:  -0.43750  -0.31250  -0.18750  -0.06250   0.06250   0.18750   0.31250   0.43750 
 KGrids2:  -0.43750  -0.31250  -0.18750  -0.06250   0.06250   0.18750   0.31250   0.43750 
 KGrids3:   0.00000 
<Band_DFT>  Eigen, time=13.512974
<Band_DFT>  DM, time=0.000000
    1    C  MulP   1.9997  1.9997 sum   3.9995
    2    C  MulP   1.9996  1.9996 sum   3.9992
    3    C  MulP   2.0003  2.0003 sum   4.0005
    4    C  MulP   1.9996  1.9996 sum   3.9992
    5    C  MulP   1.9999  1.9999 sum   3.9998
    6    C  MulP   1.9996  1.9996 sum   3.9993
    7    C  MulP   1.9997  1.9997 sum   3.9995
    8    C  MulP   1.9997  1.9997 sum   3.9994
    9    C  MulP   1.9998  1.9998 sum   3.9997
   10    C  MulP   1.9998  1.9998 sum   3.9995
   11    C  MulP   1.9998  1.9998 sum   3.9996
   12    C  MulP   2.0003  2.0003 sum   4.0007
   13    C  MulP   1.9997  1.9997 sum   3.9995
   14    C  MulP   1.9997  1.9997 sum   3.9995
   15    C  MulP   2.0000  2.0000 sum   3.9999
   16    C  MulP   1.9997  1.9997 sum   3.9995
   17    C  MulP   1.9999  1.9999 sum   3.9997
   18    C  MulP   1.9995  1.9995 sum   3.9991
   19    C  MulP   2.0012  2.0012 sum   4.0023
   20    C  MulP   2.0050  2.0050 sum   4.0100
     ..........
     ......

 Sum of MulP: up   =   259.50000 down          =   259.50000
              total=   519.00000 ideal(neutral)=   519.00000
<DFT>  Total Spin Moment (muB) =  0.000000000000
<DFT>  Mixing_weight= 0.030000000000
<DFT>  Uele   = -248.868405196918  dUele     =   0.003992275451
<DFT>  NormRD =    0.000088446998  Criterion =   0.000000010000

******************* MD= 1  SCF=24 *******************
<Poisson>  Poisson's equation using FFT...
<Set_Hamiltonian>  Hamiltonian matrix for VNA+dVH+Vxc...
<Band>  Solving the eigenvalue problem...
 KGrids1:  -0.43750  -0.31250  -0.18750  -0.06250   0.06250   0.18750   0.31250   0.43750 
 KGrids2:  -0.43750  -0.31250  -0.18750  -0.06250   0.06250   0.18750   0.31250   0.43750 
 KGrids3:   0.00000 
<Band_DFT>  Eigen, time=13.594131
<Band_DFT>  DM, time=0.000001
    1    C  MulP   1.9997  1.9997 sum   3.9995
    2    C  MulP   1.9996  1.9996 sum   3.9992
    3    C  MulP   2.0003  2.0003 sum   4.0005
    4    C  MulP   1.9996  1.9996 sum   3.9992
    5    C  MulP   1.9999  1.9999 sum   3.9998
    6    C  MulP   1.9996  1.9996 sum   3.9993
    7    C  MulP   1.9997  1.9997 sum   3.9995
    8    C  MulP   1.9997  1.9997 sum   3.9994
    9    C  MulP   1.9998  1.9998 sum   3.9997
   10    C  MulP   1.9998  1.9998 sum   3.9995
   11    C  MulP   1.9998  1.9998 sum   3.9996
   12    C  MulP   2.0003  2.0003 sum   4.0007
   13    C  MulP   1.9997  1.9997 sum   3.9995
   14    C  MulP   1.9997  1.9997 sum   3.9995
   15    C  MulP   2.0000  2.0000 sum   3.9999
   16    C  MulP   1.9997  1.9997 sum   3.9995
   17    C  MulP   1.9999  1.9999 sum   3.9998
   18    C  MulP   1.9995  1.9995 sum   3.9991
   19    C  MulP   2.0012  2.0012 sum   4.0023
   20    C  MulP   2.0050  2.0050 sum   4.0100
     ..........
     ......

 Sum of MulP: up   =   259.50000 down          =   259.50000
              total=   519.00000 ideal(neutral)=   519.00000
<DFT>  Total Spin Moment (muB) =  0.000000000000
<DFT>  Mixing_weight= 0.030000000000
<DFT>  Uele   = -248.870134079199  dUele     =   0.001728882281
<DFT>  NormRD =    0.000062290513  Criterion =   0.000000010000

******************* MD= 1  SCF=25 *******************
<Poisson>  Poisson's equation using FFT...
<Set_Hamiltonian>  Hamiltonian matrix for VNA+dVH+Vxc...
<Band>  Solving the eigenvalue problem...
 KGrids1:  -0.43750  -0.31250  -0.18750  -0.06250   0.06250   0.18750   0.31250   0.43750 
 KGrids2:  -0.43750  -0.31250  -0.18750  -0.06250   0.06250   0.18750   0.31250   0.43750 
 KGrids3:   0.00000 
<Band_DFT>  Eigen, time=13.602569
<Band_DFT>  DM, time=0.000001
    1    C  MulP   1.9997  1.9997 sum   3.9995
    2    C  MulP   1.9996  1.9996 sum   3.9992
    3    C  MulP   2.0003  2.0003 sum   4.0005
    4    C  MulP   1.9996  1.9996 sum   3.9992
    5    C  MulP   1.9999  1.9999 sum   3.9998
    6    C  MulP   1.9996  1.9996 sum   3.9993
    7    C  MulP   1.9997  1.9997 sum   3.9995
    8    C  MulP   1.9997  1.9997 sum   3.9994
    9    C  MulP   1.9998  1.9998 sum   3.9997
   10    C  MulP   1.9998  1.9998 sum   3.9995
   11    C  MulP   1.9998  1.9998 sum   3.9996
   12    C  MulP   2.0003  2.0003 sum   4.0007
   13    C  MulP   1.9997  1.9997 sum   3.9995
   14    C  MulP   1.9997  1.9997 sum   3.9995
   15    C  MulP   2.0000  2.0000 sum   3.9999
   16    C  MulP   1.9997  1.9997 sum   3.9995
   17    C  MulP   1.9999  1.9999 sum   3.9997
   18    C  MulP   1.9995  1.9995 sum   3.9991
   19    C  MulP   2.0012  2.0012 sum   4.0023
   20    C  MulP   2.0050  2.0050 sum   4.0100
     ..........
     ......

 Sum of MulP: up   =   259.50000 down          =   259.50000
              total=   519.00000 ideal(neutral)=   519.00000
<DFT>  Total Spin Moment (muB) =  0.000000000000
<DFT>  Mixing_weight= 0.030000000000
<DFT>  Uele   = -248.870953273756  dUele     =   0.000819194557
<DFT>  NormRD =    0.000029690209  Criterion =   0.000000010000

******************* MD= 1  SCF=26 *******************
<Poisson>  Poisson's equation using FFT...
<Set_Hamiltonian>  Hamiltonian matrix for VNA+dVH+Vxc...
<Band>  Solving the eigenvalue problem...
 KGrids1:  -0.43750  -0.31250  -0.18750  -0.06250   0.06250   0.18750   0.31250   0.43750 
 KGrids2:  -0.43750  -0.31250  -0.18750  -0.06250   0.06250   0.18750   0.31250   0.43750 
 KGrids3:   0.00000 
<Band_DFT>  Eigen, time=13.520310
<Band_DFT>  DM, time=0.000000
    1    C  MulP   1.9997  1.9997 sum   3.9995
    2    C  MulP   1.9996  1.9996 sum   3.9992
    3    C  MulP   2.0003  2.0003 sum   4.0005
    4    C  MulP   1.9996  1.9996 sum   3.9992
    5    C  MulP   1.9999  1.9999 sum   3.9998
    6    C  MulP   1.9996  1.9996 sum   3.9993
    7    C  MulP   1.9997  1.9997 sum   3.9995
    8    C  MulP   1.9997  1.9997 sum   3.9994
    9    C  MulP   1.9998  1.9998 sum   3.9997
   10    C  MulP   1.9998  1.9998 sum   3.9995
   11    C  MulP   1.9998  1.9998 sum   3.9996
   12    C  MulP   2.0003  2.0003 sum   4.0007
   13    C  MulP   1.9997  1.9997 sum   3.9995
   14    C  MulP   1.9997  1.9997 sum   3.9995
   15    C  MulP   2.0000  2.0000 sum   3.9999
   16    C  MulP   1.9997  1.9997 sum   3.9995
   17    C  MulP   1.9999  1.9999 sum   3.9998
   18    C  MulP   1.9995  1.9995 sum   3.9991
   19    C  MulP   2.0012  2.0012 sum   4.0023
   20    C  MulP   2.0050  2.0050 sum   4.0100
     ..........
     ......

 Sum of MulP: up   =   259.50000 down          =   259.50000
              total=   519.00000 ideal(neutral)=   519.00000
<DFT>  Total Spin Moment (muB) =  0.000000000000
<DFT>  Mixing_weight= 0.030000000000
<DFT>  Uele   = -248.871403392942  dUele     =   0.000450119186
<DFT>  NormRD =    0.000017939327  Criterion =   0.000000010000

******************* MD= 1  SCF=27 *******************
<Poisson>  Poisson's equation using FFT...
<Set_Hamiltonian>  Hamiltonian matrix for VNA+dVH+Vxc...
<Band>  Solving the eigenvalue problem...
 KGrids1:  -0.43750  -0.31250  -0.18750  -0.06250   0.06250   0.18750   0.31250   0.43750 
 KGrids2:  -0.43750  -0.31250  -0.18750  -0.06250   0.06250   0.18750   0.31250   0.43750 
 KGrids3:   0.00000 
<Band_DFT>  Eigen, time=13.518887
<Band_DFT>  DM, time=0.000000
    1    C  MulP   1.9997  1.9997 sum   3.9995
    2    C  MulP   1.9996  1.9996 sum   3.9992
    3    C  MulP   2.0003  2.0003 sum   4.0005
    4    C  MulP   1.9996  1.9996 sum   3.9992
    5    C  MulP   1.9999  1.9999 sum   3.9998
    6    C  MulP   1.9996  1.9996 sum   3.9993
    7    C  MulP   1.9997  1.9997 sum   3.9995
    8    C  MulP   1.9997  1.9997 sum   3.9994
    9    C  MulP   1.9998  1.9998 sum   3.9997
   10    C  MulP   1.9998  1.9998 sum   3.9995
   11    C  MulP   1.9998  1.9998 sum   3.9996
   12    C  MulP   2.0003  2.0003 sum   4.0007
   13    C  MulP   1.9997  1.9997 sum   3.9995
   14    C  MulP   1.9997  1.9997 sum   3.9995
   15    C  MulP   2.0000  2.0000 sum   3.9999
   16    C  MulP   1.9997  1.9997 sum   3.9995
   17    C  MulP   1.9999  1.9999 sum   3.9998
   18    C  MulP   1.9995  1.9995 sum   3.9991
   19    C  MulP   2.0012  2.0012 sum   4.0023
   20    C  MulP   2.0050  2.0050 sum   4.0100
     ..........
     ......

 Sum of MulP: up   =   259.50000 down          =   259.50000
              total=   519.00000 ideal(neutral)=   519.00000
<DFT>  Total Spin Moment (muB) =  0.000000000000
<DFT>  Mixing_weight= 0.030000000000
<DFT>  Uele   = -248.871717268512  dUele     =   0.000313875570
<DFT>  NormRD =    0.000008857774  Criterion =   0.000000010000

******************* MD= 1  SCF=28 *******************
<Poisson>  Poisson's equation using FFT...
<Set_Hamiltonian>  Hamiltonian matrix for VNA+dVH+Vxc...
<Band>  Solving the eigenvalue problem...
 KGrids1:  -0.43750  -0.31250  -0.18750  -0.06250   0.06250   0.18750   0.31250   0.43750 
 KGrids2:  -0.43750  -0.31250  -0.18750  -0.06250   0.06250   0.18750   0.31250   0.43750 
 KGrids3:   0.00000 
<Band_DFT>  Eigen, time=13.514133
<Band_DFT>  DM, time=0.000000
    1    C  MulP   1.9997  1.9997 sum   3.9995
    2    C  MulP   1.9996  1.9996 sum   3.9992
    3    C  MulP   2.0003  2.0003 sum   4.0005
    4    C  MulP   1.9996  1.9996 sum   3.9992
    5    C  MulP   1.9999  1.9999 sum   3.9998
    6    C  MulP   1.9996  1.9996 sum   3.9993
    7    C  MulP   1.9997  1.9997 sum   3.9995
    8    C  MulP   1.9997  1.9997 sum   3.9994
    9    C  MulP   1.9998  1.9998 sum   3.9997
   10    C  MulP   1.9998  1.9998 sum   3.9995
   11    C  MulP   1.9998  1.9998 sum   3.9996
   12    C  MulP   2.0003  2.0003 sum   4.0007
   13    C  MulP   1.9997  1.9997 sum   3.9995
   14    C  MulP   1.9997  1.9997 sum   3.9995
   15    C  MulP   2.0000  2.0000 sum   3.9999
   16    C  MulP   1.9997  1.9997 sum   3.9995
   17    C  MulP   1.9999  1.9999 sum   3.9998
   18    C  MulP   1.9995  1.9995 sum   3.9991
   19    C  MulP   2.0012  2.0012 sum   4.0023
   20    C  MulP   2.0050  2.0050 sum   4.0100
     ..........
     ......

 Sum of MulP: up   =   259.50000 down          =   259.50000
              total=   519.00000 ideal(neutral)=   519.00000
<DFT>  Total Spin Moment (muB) =  0.000000000000
<DFT>  Mixing_weight= 0.030000000000
<DFT>  Uele   = -248.871891485111  dUele     =   0.000174216599
<DFT>  NormRD =    0.000004459752  Criterion =   0.000000010000

******************* MD= 1  SCF=29 *******************
<Poisson>  Poisson's equation using FFT...
<Set_Hamiltonian>  Hamiltonian matrix for VNA+dVH+Vxc...
<Band>  Solving the eigenvalue problem...
 KGrids1:  -0.43750  -0.31250  -0.18750  -0.06250   0.06250   0.18750   0.31250   0.43750 
 KGrids2:  -0.43750  -0.31250  -0.18750  -0.06250   0.06250   0.18750   0.31250   0.43750 
 KGrids3:   0.00000 
<Band_DFT>  Eigen, time=13.799906
<Band_DFT>  DM, time=0.000000
    1    C  MulP   1.9997  1.9997 sum   3.9995
    2    C  MulP   1.9996  1.9996 sum   3.9992
    3    C  MulP   2.0003  2.0003 sum   4.0005
    4    C  MulP   1.9996  1.9996 sum   3.9992
    5    C  MulP   1.9999  1.9999 sum   3.9998
    6    C  MulP   1.9996  1.9996 sum   3.9993
    7    C  MulP   1.9997  1.9997 sum   3.9995
    8    C  MulP   1.9997  1.9997 sum   3.9994
    9    C  MulP   1.9998  1.9998 sum   3.9997
   10    C  MulP   1.9998  1.9998 sum   3.9995
   11    C  MulP   1.9998  1.9998 sum   3.9996
   12    C  MulP   2.0003  2.0003 sum   4.0007
   13    C  MulP   1.9997  1.9997 sum   3.9995
   14    C  MulP   1.9997  1.9997 sum   3.9995
   15    C  MulP   2.0000  2.0000 sum   3.9999
   16    C  MulP   1.9997  1.9997 sum   3.9995
   17    C  MulP   1.9999  1.9999 sum   3.9998
   18    C  MulP   1.9995  1.9995 sum   3.9991
   19    C  MulP   2.0012  2.0012 sum   4.0023
   20    C  MulP   2.0050  2.0050 sum   4.0100
     ..........
     ......

 Sum of MulP: up   =   259.50000 down          =   259.50000
              total=   519.00000 ideal(neutral)=   519.00000
<DFT>  Total Spin Moment (muB) =  0.000000000000
<DFT>  Mixing_weight= 0.030000000000
<DFT>  Uele   = -248.871989988337  dUele     =   0.000098503226
<DFT>  NormRD =    0.000002558277  Criterion =   0.000000010000

******************* MD= 1  SCF=30 *******************
<Poisson>  Poisson's equation using FFT...
<Set_Hamiltonian>  Hamiltonian matrix for VNA+dVH+Vxc...
<Band>  Solving the eigenvalue problem...
 KGrids1:  -0.43750  -0.31250  -0.18750  -0.06250   0.06250   0.18750   0.31250   0.43750 
 KGrids2:  -0.43750  -0.31250  -0.18750  -0.06250   0.06250   0.18750   0.31250   0.43750 
 KGrids3:   0.00000 
<Band_DFT>  Eigen, time=13.517492
<Band_DFT>  DM, time=0.000000
    1    C  MulP   1.9997  1.9997 sum   3.9995
    2    C  MulP   1.9996  1.9996 sum   3.9992
    3    C  MulP   2.0003  2.0003 sum   4.0005
    4    C  MulP   1.9996  1.9996 sum   3.9992
    5    C  MulP   1.9999  1.9999 sum   3.9998
    6    C  MulP   1.9996  1.9996 sum   3.9993
    7    C  MulP   1.9997  1.9997 sum   3.9995
    8    C  MulP   1.9997  1.9997 sum   3.9994
    9    C  MulP   1.9998  1.9998 sum   3.9997
   10    C  MulP   1.9998  1.9998 sum   3.9995
   11    C  MulP   1.9998  1.9998 sum   3.9996
   12    C  MulP   2.0003  2.0003 sum   4.0007
   13    C  MulP   1.9997  1.9997 sum   3.9995
   14    C  MulP   1.9997  1.9997 sum   3.9995
   15    C  MulP   2.0000  2.0000 sum   3.9999
   16    C  MulP   1.9997  1.9997 sum   3.9995
   17    C  MulP   1.9999  1.9999 sum   3.9998
   18    C  MulP   1.9995  1.9995 sum   3.9991
   19    C  MulP   2.0012  2.0012 sum   4.0023
   20    C  MulP   2.0050  2.0050 sum   4.0100
     ..........
     ......

 Sum of MulP: up   =   259.50000 down          =   259.50000
              total=   519.00000 ideal(neutral)=   519.00000
<DFT>  Total Spin Moment (muB) =  0.000000000000
<DFT>  Mixing_weight= 0.030000000000
<DFT>  Uele   = -248.872073189000  dUele     =   0.000083200663
<DFT>  NormRD =    0.000001422435  Criterion =   0.000000010000

******************* MD= 1  SCF=31 *******************
<Poisson>  Poisson's equation using FFT...
<Set_Hamiltonian>  Hamiltonian matrix for VNA+dVH+Vxc...
<Band>  Solving the eigenvalue problem...
 KGrids1:  -0.43750  -0.31250  -0.18750  -0.06250   0.06250   0.18750   0.31250   0.43750 
 KGrids2:  -0.43750  -0.31250  -0.18750  -0.06250   0.06250   0.18750   0.31250   0.43750 
 KGrids3:   0.00000 
<Band_DFT>  Eigen, time=13.507832
<Band_DFT>  DM, time=0.000000
    1    C  MulP   1.9997  1.9997 sum   3.9995
    2    C  MulP   1.9996  1.9996 sum   3.9992
    3    C  MulP   2.0003  2.0003 sum   4.0005
    4    C  MulP   1.9996  1.9996 sum   3.9992
    5    C  MulP   1.9999  1.9999 sum   3.9998
    6    C  MulP   1.9996  1.9996 sum   3.9993
    7    C  MulP   1.9997  1.9997 sum   3.9995
    8    C  MulP   1.9997  1.9997 sum   3.9994
    9    C  MulP   1.9998  1.9998 sum   3.9997
   10    C  MulP   1.9998  1.9998 sum   3.9995
   11    C  MulP   1.9998  1.9998 sum   3.9996
   12    C  MulP   2.0003  2.0003 sum   4.0007
   13    C  MulP   1.9997  1.9997 sum   3.9995
   14    C  MulP   1.9997  1.9997 sum   3.9995
   15    C  MulP   2.0000  2.0000 sum   3.9999
   16    C  MulP   1.9997  1.9997 sum   3.9995
   17    C  MulP   1.9999  1.9999 sum   3.9998
   18    C  MulP   1.9995  1.9995 sum   3.9991
   19    C  MulP   2.0012  2.0012 sum   4.0023
   20    C  MulP   2.0050  2.0050 sum   4.0100
     ..........
     ......

 Sum of MulP: up   =   259.50000 down          =   259.50000
              total=   519.00000 ideal(neutral)=   519.00000
<DFT>  Total Spin Moment (muB) =  0.000000000000
<DFT>  Mixing_weight= 0.030000000000
<DFT>  Uele   = -248.872125453348  dUele     =   0.000052264348
<DFT>  NormRD =    0.000000670891  Criterion =   0.000000010000

******************* MD= 1  SCF=32 *******************
<Poisson>  Poisson's equation using FFT...
<Set_Hamiltonian>  Hamiltonian matrix for VNA+dVH+Vxc...
<Band>  Solving the eigenvalue problem...
 KGrids1:  -0.43750  -0.31250  -0.18750  -0.06250   0.06250   0.18750   0.31250   0.43750 
 KGrids2:  -0.43750  -0.31250  -0.18750  -0.06250   0.06250   0.18750   0.31250   0.43750 
 KGrids3:   0.00000 
<Band_DFT>  Eigen, time=13.539387
<Band_DFT>  DM, time=0.000000
    1    C  MulP   1.9997  1.9997 sum   3.9995
    2    C  MulP   1.9996  1.9996 sum   3.9992
    3    C  MulP   2.0003  2.0003 sum   4.0005
    4    C  MulP   1.9996  1.9996 sum   3.9992
    5    C  MulP   1.9999  1.9999 sum   3.9998
    6    C  MulP   1.9996  1.9996 sum   3.9993
    7    C  MulP   1.9997  1.9997 sum   3.9995
    8    C  MulP   1.9997  1.9997 sum   3.9994
    9    C  MulP   1.9998  1.9998 sum   3.9997
   10    C  MulP   1.9998  1.9998 sum   3.9995
   11    C  MulP   1.9998  1.9998 sum   3.9996
   12    C  MulP   2.0003  2.0003 sum   4.0007
   13    C  MulP   1.9997  1.9997 sum   3.9995
   14    C  MulP   1.9997  1.9997 sum   3.9995
   15    C  MulP   2.0000  2.0000 sum   3.9999
   16    C  MulP   1.9997  1.9997 sum   3.9995
   17    C  MulP   1.9999  1.9999 sum   3.9998
   18    C  MulP   1.9995  1.9995 sum   3.9991
   19    C  MulP   2.0012  2.0012 sum   4.0023
   20    C  MulP   2.0050  2.0050 sum   4.0100
     ..........
     ......

 Sum of MulP: up   =   259.50000 down          =   259.50000
              total=   519.00000 ideal(neutral)=   519.00000
<DFT>  Total Spin Moment (muB) =  0.000000000000
<DFT>  Mixing_weight= 0.030000000000
<DFT>  Uele   = -248.872148571644  dUele     =   0.000023118296
<DFT>  NormRD =    0.000000360243  Criterion =   0.000000010000

******************* MD= 1  SCF=33 *******************
<Poisson>  Poisson's equation using FFT...
<Set_Hamiltonian>  Hamiltonian matrix for VNA+dVH+Vxc...
<Band>  Solving the eigenvalue problem...
 KGrids1:  -0.43750  -0.31250  -0.18750  -0.06250   0.06250   0.18750   0.31250   0.43750 
 KGrids2:  -0.43750  -0.31250  -0.18750  -0.06250   0.06250   0.18750   0.31250   0.43750 
 KGrids3:   0.00000 
<Band_DFT>  Eigen, time=13.515243
<Band_DFT>  DM, time=0.000000
    1    C  MulP   1.9997  1.9997 sum   3.9995
    2    C  MulP   1.9996  1.9996 sum   3.9992
    3    C  MulP   2.0003  2.0003 sum   4.0005
    4    C  MulP   1.9996  1.9996 sum   3.9992
    5    C  MulP   1.9999  1.9999 sum   3.9998
    6    C  MulP   1.9996  1.9996 sum   3.9993
    7    C  MulP   1.9997  1.9997 sum   3.9995
    8    C  MulP   1.9997  1.9997 sum   3.9994
    9    C  MulP   1.9998  1.9998 sum   3.9997
   10    C  MulP   1.9998  1.9998 sum   3.9995
   11    C  MulP   1.9998  1.9998 sum   3.9996
   12    C  MulP   2.0003  2.0003 sum   4.0007
   13    C  MulP   1.9997  1.9997 sum   3.9995
   14    C  MulP   1.9997  1.9997 sum   3.9995
   15    C  MulP   2.0000  2.0000 sum   3.9999
   16    C  MulP   1.9997  1.9997 sum   3.9995
   17    C  MulP   1.9999  1.9999 sum   3.9998
   18    C  MulP   1.9995  1.9995 sum   3.9991
   19    C  MulP   2.0012  2.0012 sum   4.0023
   20    C  MulP   2.0050  2.0050 sum   4.0100
     ..........
     ......

 Sum of MulP: up   =   259.50000 down          =   259.50000
              total=   519.00000 ideal(neutral)=   519.00000
<DFT>  Total Spin Moment (muB) =  0.000000000000
<DFT>  Mixing_weight= 0.030000000000
<DFT>  Uele   = -248.872169643960  dUele     =   0.000021072317
<DFT>  NormRD =    0.000000086476  Criterion =   0.000000010000

******************* MD= 1  SCF=34 *******************
<Poisson>  Poisson's equation using FFT...
<Set_Hamiltonian>  Hamiltonian matrix for VNA+dVH+Vxc...
<Band>  Solving the eigenvalue problem...
 KGrids1:  -0.43750  -0.31250  -0.18750  -0.06250   0.06250   0.18750   0.31250   0.43750 
 KGrids2:  -0.43750  -0.31250  -0.18750  -0.06250   0.06250   0.18750   0.31250   0.43750 
 KGrids3:   0.00000 
<Band_DFT>  Eigen, time=13.806134
<Band_DFT>  DM, time=0.000000
    1    C  MulP   1.9997  1.9997 sum   3.9995
    2    C  MulP   1.9996  1.9996 sum   3.9992
    3    C  MulP   2.0003  2.0003 sum   4.0005
    4    C  MulP   1.9996  1.9996 sum   3.9992
    5    C  MulP   1.9999  1.9999 sum   3.9998
    6    C  MulP   1.9996  1.9996 sum   3.9993
    7    C  MulP   1.9997  1.9997 sum   3.9995
    8    C  MulP   1.9997  1.9997 sum   3.9994
    9    C  MulP   1.9998  1.9998 sum   3.9997
   10    C  MulP   1.9998  1.9998 sum   3.9995
   11    C  MulP   1.9998  1.9998 sum   3.9996
   12    C  MulP   2.0003  2.0003 sum   4.0007
   13    C  MulP   1.9997  1.9997 sum   3.9995
   14    C  MulP   1.9997  1.9997 sum   3.9995
   15    C  MulP   2.0000  2.0000 sum   3.9999
   16    C  MulP   1.9997  1.9997 sum   3.9995
   17    C  MulP   1.9999  1.9999 sum   3.9998
   18    C  MulP   1.9995  1.9995 sum   3.9991
   19    C  MulP   2.0012  2.0012 sum   4.0023
   20    C  MulP   2.0050  2.0050 sum   4.0100
     ..........
     ......

 Sum of MulP: up   =   259.50000 down          =   259.50000
              total=   519.00000 ideal(neutral)=   519.00000
<DFT>  Total Spin Moment (muB) =  0.000000000000
<DFT>  Mixing_weight= 0.030000000000
<DFT>  Uele   = -248.872174482673  dUele     =   0.000004838713
<DFT>  NormRD =    0.000000018453  Criterion =   0.000000010000

******************* MD= 1  SCF=35 *******************
<Poisson>  Poisson's equation using FFT...
<Set_Hamiltonian>  Hamiltonian matrix for VNA+dVH+Vxc...
<Band>  Solving the eigenvalue problem...
 KGrids1:  -0.43750  -0.31250  -0.18750  -0.06250   0.06250   0.18750   0.31250   0.43750 
 KGrids2:  -0.43750  -0.31250  -0.18750  -0.06250   0.06250   0.18750   0.31250   0.43750 
 KGrids3:   0.00000 
<Band_DFT>  Eigen, time=13.522802
<Band_DFT>  DM, time=0.000000
    1    C  MulP   1.9997  1.9997 sum   3.9995
    2    C  MulP   1.9996  1.9996 sum   3.9992
    3    C  MulP   2.0003  2.0003 sum   4.0005
    4    C  MulP   1.9996  1.9996 sum   3.9992
    5    C  MulP   1.9999  1.9999 sum   3.9998
    6    C  MulP   1.9996  1.9996 sum   3.9993
    7    C  MulP   1.9997  1.9997 sum   3.9995
    8    C  MulP   1.9997  1.9997 sum   3.9994
    9    C  MulP   1.9998  1.9998 sum   3.9997
   10    C  MulP   1.9998  1.9998 sum   3.9995
   11    C  MulP   1.9998  1.9998 sum   3.9996
   12    C  MulP   2.0003  2.0003 sum   4.0007
   13    C  MulP   1.9997  1.9997 sum   3.9995
   14    C  MulP   1.9997  1.9997 sum   3.9995
   15    C  MulP   2.0000  2.0000 sum   3.9999
   16    C  MulP   1.9997  1.9997 sum   3.9995
   17    C  MulP   1.9999  1.9999 sum   3.9998
   18    C  MulP   1.9995  1.9995 sum   3.9991
   19    C  MulP   2.0012  2.0012 sum   4.0023
   20    C  MulP   2.0050  2.0050 sum   4.0100
     ..........
     ......

 Sum of MulP: up   =   259.50000 down          =   259.50000
              total=   519.00000 ideal(neutral)=   519.00000
<DFT>  Total Spin Moment (muB) =  0.000000000000
<DFT>  Mixing_weight= 0.030000000000
<DFT>  Uele   = -248.872174279703  dUele     =   0.000000202971
<DFT>  NormRD =    0.000000012555  Criterion =   0.000000010000

******************* MD= 1  SCF=36 *******************
<Poisson>  Poisson's equation using FFT...
<Set_Hamiltonian>  Hamiltonian matrix for VNA+dVH+Vxc...
<Band>  Solving the eigenvalue problem...
 KGrids1:  -0.43750  -0.31250  -0.18750  -0.06250   0.06250   0.18750   0.31250   0.43750 
 KGrids2:  -0.43750  -0.31250  -0.18750  -0.06250   0.06250   0.18750   0.31250   0.43750 
 KGrids3:   0.00000 
<Band_DFT>  Eigen, time=13.515900
<Band_DFT>  DM, time=0.000000
    1    C  MulP   1.9997  1.9997 sum   3.9995
    2    C  MulP   1.9996  1.9996 sum   3.9992
    3    C  MulP   2.0003  2.0003 sum   4.0005
    4    C  MulP   1.9996  1.9996 sum   3.9992
    5    C  MulP   1.9999  1.9999 sum   3.9998
    6    C  MulP   1.9996  1.9996 sum   3.9993
    7    C  MulP   1.9997  1.9997 sum   3.9995
    8    C  MulP   1.9997  1.9997 sum   3.9994
    9    C  MulP   1.9998  1.9998 sum   3.9997
   10    C  MulP   1.9998  1.9998 sum   3.9995
   11    C  MulP   1.9998  1.9998 sum   3.9996
   12    C  MulP   2.0003  2.0003 sum   4.0007
   13    C  MulP   1.9997  1.9997 sum   3.9995
   14    C  MulP   1.9997  1.9997 sum   3.9995
   15    C  MulP   2.0000  2.0000 sum   3.9999
   16    C  MulP   1.9997  1.9997 sum   3.9995
   17    C  MulP   1.9999  1.9999 sum   3.9998
   18    C  MulP   1.9995  1.9995 sum   3.9991
   19    C  MulP   2.0012  2.0012 sum   4.0023
   20    C  MulP   2.0050  2.0050 sum   4.0100
     ..........
     ......

 Sum of MulP: up   =   259.50000 down          =   259.50000
              total=   519.00000 ideal(neutral)=   519.00000
<DFT>  Total Spin Moment (muB) =  0.000000000000
<DFT>  Mixing_weight= 0.030000000000
<DFT>  Uele   = -248.872173914534  dUele     =   0.000000365168
<DFT>  NormRD =    0.000000005057  Criterion =   0.000000010000

******************* MD= 1  SCF=37 *******************
<Poisson>  Poisson's equation using FFT...
<Set_Hamiltonian>  Hamiltonian matrix for VNA+dVH+Vxc...
<Band>  Solving the eigenvalue problem...
 KGrids1:  -0.43750  -0.31250  -0.18750  -0.06250   0.06250   0.18750   0.31250   0.43750 
 KGrids2:  -0.43750  -0.31250  -0.18750  -0.06250   0.06250   0.18750   0.31250   0.43750 
 KGrids3:   0.00000 
<Band_DFT>  Eigen, time=13.522037
<Band_DFT>  DM, time=0.000000
    1    C  MulP   1.9997  1.9997 sum   3.9995
    2    C  MulP   1.9996  1.9996 sum   3.9992
    3    C  MulP   2.0003  2.0003 sum   4.0005
    4    C  MulP   1.9996  1.9996 sum   3.9992
    5    C  MulP   1.9999  1.9999 sum   3.9998
    6    C  MulP   1.9996  1.9996 sum   3.9993
    7    C  MulP   1.9997  1.9997 sum   3.9995
    8    C  MulP   1.9997  1.9997 sum   3.9994
    9    C  MulP   1.9998  1.9998 sum   3.9997
   10    C  MulP   1.9998  1.9998 sum   3.9995
   11    C  MulP   1.9998  1.9998 sum   3.9996
   12    C  MulP   2.0003  2.0003 sum   4.0007
   13    C  MulP   1.9997  1.9997 sum   3.9995
   14    C  MulP   1.9997  1.9997 sum   3.9995
   15    C  MulP   2.0000  2.0000 sum   3.9999
   16    C  MulP   1.9997  1.9997 sum   3.9995
   17    C  MulP   1.9999  1.9999 sum   3.9998
   18    C  MulP   1.9995  1.9995 sum   3.9991
   19    C  MulP   2.0012  2.0012 sum   4.0023
   20    C  MulP   2.0050  2.0050 sum   4.0100
     ..........
     ......

 Sum of MulP: up   =   259.50000 down          =   259.50000
              total=   519.00000 ideal(neutral)=   519.00000
<DFT>  Total Spin Moment (muB) =  0.000000000000
<DFT>  Mixing_weight= 0.030000000000
<DFT>  Uele   = -248.872173720529  dUele     =   0.000000194005
<DFT>  NormRD =    0.000000002026  Criterion =   0.000000010000

******************* MD= 1  SCF=38 *******************
<Poisson>  Poisson's equation using FFT...
<Set_Hamiltonian>  Hamiltonian matrix for VNA+dVH+Vxc...
<Band>  Solving the eigenvalue problem...
 KGrids1:  -0.43750  -0.31250  -0.18750  -0.06250   0.06250   0.18750   0.31250   0.43750 
 KGrids2:  -0.43750  -0.31250  -0.18750  -0.06250   0.06250   0.18750   0.31250   0.43750 
 KGrids3:   0.00000 
<Band_DFT>  Eigen, time=13.518033
<Band_DFT>  DM, time=0.000001
    1    C  MulP   1.9997  1.9997 sum   3.9995
    2    C  MulP   1.9996  1.9996 sum   3.9992
    3    C  MulP   2.0003  2.0003 sum   4.0005
    4    C  MulP   1.9996  1.9996 sum   3.9992
    5    C  MulP   1.9999  1.9999 sum   3.9998
    6    C  MulP   1.9996  1.9996 sum   3.9993
    7    C  MulP   1.9997  1.9997 sum   3.9995
    8    C  MulP   1.9997  1.9997 sum   3.9994
    9    C  MulP   1.9998  1.9998 sum   3.9997
   10    C  MulP   1.9998  1.9998 sum   3.9995
   11    C  MulP   1.9998  1.9998 sum   3.9996
   12    C  MulP   2.0003  2.0003 sum   4.0007
   13    C  MulP   1.9997  1.9997 sum   3.9995
   14    C  MulP   1.9997  1.9997 sum   3.9995
[...]
<DFT>  Mixing_weight= 0.030000000000
<DFT>  Uele   = -249.250003326219  dUele     =   0.000000018083
<DFT>  NormRD =    0.000000209031  Criterion =   0.000000010000

******************* MD=38  SCF=14 *******************
<Poisson>  Poisson's equation using FFT...
<Set_Hamiltonian>  Hamiltonian matrix for VNA+dVH+Vxc...
<Band>  Solving the eigenvalue problem...
 KGrids1:  -0.43750  -0.31250  -0.18750  -0.06250   0.06250   0.18750   0.31250   0.43750 
 KGrids2:  -0.43750  -0.31250  -0.18750  -0.06250   0.06250   0.18750   0.31250   0.43750 
 KGrids3:   0.00000 
<Band_DFT>  Eigen, time=13.479286
<Band_DFT>  DM, time=0.000000
    1    C  MulP   1.9996  1.9996 sum   3.9993
    2    C  MulP   1.9994  1.9994 sum   3.9989
    3    C  MulP   2.0001  2.0001 sum   4.0002
    4    C  MulP   1.9994  1.9994 sum   3.9989
    5    C  MulP   1.9996  1.9996 sum   3.9992
    6    C  MulP   1.9995  1.9995 sum   3.9989
    7    C  MulP   1.9996  1.9996 sum   3.9991
    8    C  MulP   1.9995  1.9995 sum   3.9989
    9    C  MulP   1.9997  1.9997 sum   3.9994
   10    C  MulP   1.9995  1.9995 sum   3.9991
   11    C  MulP   2.0002  2.0002 sum   4.0003
   12    C  MulP   2.0000  2.0000 sum   4.0000
   13    C  MulP   1.9996  1.9996 sum   3.9992
   14    C  MulP   1.9995  1.9995 sum   3.9991
   15    C  MulP   1.9997  1.9997 sum   3.9993
   16    C  MulP   1.9996  1.9996 sum   3.9991
   17    C  MulP   1.9996  1.9996 sum   3.9991
   18    C  MulP   1.9994  1.9994 sum   3.9987
   19    C  MulP   1.9998  1.9998 sum   3.9996
   20    C  MulP   2.0014  2.0014 sum   4.0029
     ..........
     ......

 Sum of MulP: up   =   259.50000 down          =   259.50000
              total=   519.00000 ideal(neutral)=   519.00000
<DFT>  Total Spin Moment (muB) =  0.000000000000
<DFT>  Mixing_weight= 0.030000000000
<DFT>  Uele   = -249.250003333353  dUele     =   0.000000007134
<DFT>  NormRD =    0.000000086290  Criterion =   0.000000010000
<MD=38>  Force calculation
  Force calculation #1
  Force calculation #2
  Force calculation #3
  Force calculation #4
  Force calculation #5
<MD=38>  Total Energy
  Force calculation #6
  Force calculation #7

*******************************************************
                  Dipole moment (Debye)                 
*******************************************************

 Absolute D       34.37486330

                      Dx                Dy                Dz
 Total             29.87218727      -16.99345452       -0.71144799
 Core           12267.46182623    21326.11925462    26228.04426062
 Electron      -12237.58963896   -21343.11270913   -26228.75570861
 Back ground       -0.00000000       -0.00000000       -0.00000000

*******************************************************
                Total Energy (Hartree) at MD =38        
*******************************************************

  Uele  =    -249.250003333353

  Ukin  =     546.222844777715
  UH0   =   -7509.101911996838
  UH1   =       1.852452418369
  Una   =    -389.860819620863
  Unl   =     -65.524162503296
  Uxc0  =    -126.125455273896
  Uxc1  =    -126.125455273896
  Ucore =    6903.962274711845
  Uhub  =       0.000000000000
  Ucs   =       0.000000000000
  Uzs   =       0.000000000000
  Uzo   =       0.000000000000
  Uef   =       0.000000000000
  UvdW  =       0.000000000000
  Uch   =       0.000000000000
  Utot  =    -764.700232760860

  UpV   =       0.000000000000
  Enpy  =    -764.700232760860
  Note:

  Uele:   band energy
  Ukin:   kinetic energy
  UH0:    electric part of screened Coulomb energy
  UH1:    difference electron-electron Coulomb energy
  Una:    neutral atom potential energy
  Unl:    non-local potential energy
  Uxc0:   exchange-correlation energy for alpha spin
  Uxc1:   exchange-correlation energy for beta spin
  Ucore:  core-core Coulomb energy
  Uhub:   LDA+U energy
  Ucs:    constraint energy for spin orientation
  Uzs:    Zeeman term for spin magnetic moment
  Uzo:    Zeeman term for orbital magnetic moment
  Uef:    electric energy by electric field
  UvdW:   semi-empirical vdW energy 
  Uch:    penalty term to create a core hole
  UpV:    pressure times volume
  Enpy:   Enthalpy = Utot + UpV
  (see also PRB 72, 045121(2005) for the energy contributions)


*******************************************************
           Computational times (s) at MD =38            
*******************************************************

  DFT in total      =  235.32031

  Set_OLP_Kin       =    1.11037
  Set_Nonlocal      =    2.92103
  Set_ProExpn_VNA   =    4.72959
  Set_Hamiltonian   =   13.33136
  Poisson           =    0.16303
  diagonalization   =  199.83885
  Mixing_DM         =    1.42103
  Force             =    3.81147
  Total_Energy      =    1.29451
  Set_Aden_Grid     =    0.28501
  Set_Orbitals_Grid =    0.56700
  Set_Density_Grid  =    5.28851
  RestartFileDFT    =    0.25750
  Mulliken_Charge   =    0.01220
  FFT(2D)_Density   =    0.18209

The SCF was achieved at MD=  38

*******************************************************
             MD or geometry opt. at MD =38              
*******************************************************


The geometry optimization was achieved.
<RF>  |Maximum force| (Hartree/Bohr) = 0.000077764757
<RF>  Criterion       (Hartree/Bohr) = 0.000100000000

     atom=   1, XYZ(ang) Fxyz(a.u.)=   0.0028    1.4226   10.4353    -0.0000   -0.0000   -0.0001
     atom=   2, XYZ(ang) Fxyz(a.u.)=  -1.2297    3.5609   10.4630    -0.0000    0.0000   -0.0000
     atom=   3, XYZ(ang) Fxyz(a.u.)=  -2.4642    5.6972   10.4782     0.0000   -0.0000   -0.0000
     atom=   4, XYZ(ang) Fxyz(a.u.)=  -3.6968    7.8346   10.4581    -0.0000    0.0000    0.0000
     atom=   5, XYZ(ang) Fxyz(a.u.)=  -4.9323    9.9709   10.4297    -0.0000   -0.0000    0.0001
     atom=   6, XYZ(ang) Fxyz(a.u.)=  -6.1658   12.1069   10.4074     0.0000   -0.0000    0.0000
     atom=   7, XYZ(ang) Fxyz(a.u.)=  -7.3989   14.2440   10.4006     0.0000    0.0000   -0.0000
     atom=   8, XYZ(ang) Fxyz(a.u.)=  -8.6333   16.3804   10.4109    -0.0000    0.0000   -0.0001
     atom=   9, XYZ(ang) Fxyz(a.u.)=   2.4701    1.4225   10.4285     0.0000   -0.0000    0.0000
     atom=  10, XYZ(ang) Fxyz(a.u.)=   1.2364    3.5597   10.4764     0.0000   -0.0000   -0.0000
     atom=  11, XYZ(ang) Fxyz(a.u.)=   0.0048    5.6959   10.5338     0.0000    0.0000   -0.0000
     atom=  12, XYZ(ang) Fxyz(a.u.)=  -1.2304    7.8360   10.5316     0.0000    0.0000    0.0000
     atom=  13, XYZ(ang) Fxyz(a.u.)=  -2.4642    9.9705   10.4731     0.0000   -0.0000   -0.0000
     atom=  14, XYZ(ang) Fxyz(a.u.)=  -3.6984   12.1075   10.4265    -0.0000    0.0000    0.0001
     atom=  15, XYZ(ang) Fxyz(a.u.)=  -4.9327   14.2439   10.4007    -0.0000    0.0000    0.0001
     atom=  16, XYZ(ang) Fxyz(a.u.)=  -6.1659   16.3796   10.4009     0.0000   -0.0000   -0.0000
     atom=  17, XYZ(ang) Fxyz(a.u.)=   4.9362    1.4225   10.4243     0.0000   -0.0000    0.0000
     atom=  18, XYZ(ang) Fxyz(a.u.)=   3.7030    3.5569   10.4795     0.0000    0.0000    0.0000
     atom=  19, XYZ(ang) Fxyz(a.u.)=   2.4715    5.6948   10.5683    -0.0000   -0.0000    0.0000
     atom=  20, XYZ(ang) Fxyz(a.u.)=   1.2335    7.8315   10.6690    -0.0000   -0.0000    0.0000
     atom=  21, XYZ(ang) Fxyz(a.u.)=   0.0026    9.9729   10.5692     0.0000   -0.0000    0.0000
     atom=  22, XYZ(ang) Fxyz(a.u.)=  -1.2333   12.1081   10.4826     0.0000    0.0000    0.0001
     atom=  23, XYZ(ang) Fxyz(a.u.)=  -2.4654   14.2432   10.4267    -0.0000    0.0000    0.0000
     atom=  24, XYZ(ang) Fxyz(a.u.)=  -3.6985   16.3803   10.4071    -0.0000    0.0000   -0.0000
     atom=  25, XYZ(ang) Fxyz(a.u.)=   7.4036    1.4226   10.4263    -0.0000    0.0000    0.0000
     atom=  26, XYZ(ang) Fxyz(a.u.)=   6.1697    3.5597   10.4650     0.0000   -0.0000   -0.0000
     atom=  27, XYZ(ang) Fxyz(a.u.)=   4.9339    5.6944   10.5595    -0.0000   -0.0000    0.0001
     atom=  28, XYZ(ang) Fxyz(a.u.)=   3.7023    7.8100   10.7695    -0.0000    0.0000    0.0000
     atom=  29, XYZ(ang) Fxyz(a.u.)=   2.4474    9.9829   10.7788    -0.0000   -0.0000   -0.0000
     atom=  30, XYZ(ang) Fxyz(a.u.)=   1.2338   12.1056   10.5726     0.0000    0.0000    0.0000
     atom=  31, XYZ(ang) Fxyz(a.u.)=   0.0024   14.2430   10.4767    -0.0000    0.0000   -0.0000
     atom=  32, XYZ(ang) Fxyz(a.u.)=  -1.2319   16.3800   10.4309     0.0000   -0.0000    0.0000
     atom=  33, XYZ(ang) Fxyz(a.u.)=   9.8713    1.4231   10.4353     0.0000    0.0000   -0.0000
     atom=  34, XYZ(ang) Fxyz(a.u.)=   8.6359    3.5609   10.4495     0.0000    0.0000   -0.0000
     atom=  35, XYZ(ang) Fxyz(a.u.)=   7.4013    5.6959   10.5151    -0.0000   -0.0000   -0.0000
     atom=  36, XYZ(ang) Fxyz(a.u.)=   6.1727    7.8321   10.6467    -0.0000    0.0000   -0.0000
     atom=  37, XYZ(ang) Fxyz(a.u.)=   4.9566    9.9826   10.7686    -0.0000    0.0000    0.0000
     atom=  38, XYZ(ang) Fxyz(a.u.)=   3.7036   12.1100   10.6728     0.0000   -0.0000   -0.0000
     atom=  39, XYZ(ang) Fxyz(a.u.)=   2.4678   14.2418   10.5389     0.0000   -0.0000   -0.0000
     atom=  40, XYZ(ang) Fxyz(a.u.)=   1.2359   16.3784   10.4634    -0.0000    0.0000   -0.0000
     atom=  41, XYZ(ang) Fxyz(a.u.)=  12.3380    1.4226   10.4471    -0.0000    0.0000   -0.0000
     atom=  42, XYZ(ang) Fxyz(a.u.)=  11.1040    3.5599   10.4389     0.0000    0.0000   -0.0000
     atom=  43, XYZ(ang) Fxyz(a.u.)=   9.8704    5.6973   10.4638    -0.0000    0.0000    0.0000
     atom=  44, XYZ(ang) Fxyz(a.u.)=   8.6369    7.8362   10.5132    -0.0000   -0.0000   -0.0000
     atom=  45, XYZ(ang) Fxyz(a.u.)=   7.4044    9.9738   10.5564    -0.0000   -0.0000   -0.0000
     atom=  46, XYZ(ang) Fxyz(a.u.)=   6.1729   12.1063   10.5681    -0.0000    0.0000    0.0000
     atom=  47, XYZ(ang) Fxyz(a.u.)=   4.9387   14.2419   10.5383     0.0000   -0.0000   -0.0000
     atom=  48, XYZ(ang) Fxyz(a.u.)=   3.7032   16.3796   10.4850    -0.0000    0.0000    0.0000
     atom=  49, XYZ(ang) Fxyz(a.u.)=  14.8066    1.4226   10.4497    -0.0000    0.0000   -0.0001
     atom=  50, XYZ(ang) Fxyz(a.u.)=  13.5722    3.5601   10.4389    -0.0000    0.0000    0.0000
     atom=  51, XYZ(ang) Fxyz(a.u.)=  12.3383    5.6978   10.4380     0.0000   -0.0000   -0.0000
     atom=  52, XYZ(ang) Fxyz(a.u.)=  11.1033    7.8346   10.4482     0.0000   -0.0000    0.0000
     atom=  53, XYZ(ang) Fxyz(a.u.)=   9.8711    9.9710   10.4626     0.0000    0.0000   -0.0000
     atom=  54, XYZ(ang) Fxyz(a.u.)=   8.6401   12.1086   10.4768     0.0000   -0.0000    0.0000
     atom=  55, XYZ(ang) Fxyz(a.u.)=   7.4044   14.2435   10.4763     0.0000    0.0000   -0.0000
     atom=  56, XYZ(ang) Fxyz(a.u.)=   6.1705   16.3786   10.4658     0.0000    0.0000   -0.0000
     atom=  57, XYZ(ang) Fxyz(a.u.)=  17.2734    1.4232   10.4430     0.0000    0.0000   -0.0000
     atom=  58, XYZ(ang) Fxyz(a.u.)=  16.0406    3.5599   10.4471    -0.0000    0.0000   -0.0001
     atom=  59, XYZ(ang) Fxyz(a.u.)=  14.8063    5.6978   10.4434    -0.0000   -0.0000    0.0000
     atom=  60, XYZ(ang) Fxyz(a.u.)=  13.5724    7.8338   10.4334    -0.0000   -0.0000    0.0001
     atom=  61, XYZ(ang) Fxyz(a.u.)=  12.3390    9.9710   10.4257     0.0000   -0.0000    0.0001
     atom=  62, XYZ(ang) Fxyz(a.u.)=  11.1053   12.1078   10.4228     0.0000    0.0000    0.0000
     atom=  63, XYZ(ang) Fxyz(a.u.)=   9.8721   14.2436   10.4265     0.0000    0.0000   -0.0000
     atom=  64, XYZ(ang) Fxyz(a.u.)=   8.6385   16.3803   10.4352     0.0000    0.0000   -0.0000
     atom=  65, XYZ(ang) Fxyz(a.u.)=   1.2358    0.7106   10.4222    -0.0000   -0.0000    0.0001
     atom=  66, XYZ(ang) Fxyz(a.u.)=   0.0034    2.8483   10.4564     0.0000   -0.0000    0.0001
     atom=  67, XYZ(ang) Fxyz(a.u.)=  -1.2278    4.9859   10.4896    -0.0000   -0.0000    0.0000
     atom=  68, XYZ(ang) Fxyz(a.u.)=  -2.4617    7.1238   10.4871    -0.0000   -0.0000   -0.0000
     atom=  69, XYZ(ang) Fxyz(a.u.)=  -3.6971    9.2588   10.4517    -0.0000   -0.0000    0.0000
     atom=  70, XYZ(ang) Fxyz(a.u.)=  -4.9324   11.3949   10.4186    -0.0000    0.0000    0.0000
     atom=  71, XYZ(ang) Fxyz(a.u.)=  -6.1657   13.5321   10.3998     0.0000    0.0000    0.0000
     atom=  72, XYZ(ang) Fxyz(a.u.)=  -7.3990   15.6679   10.4011     0.0000   -0.0000    0.0000
     atom=  73, XYZ(ang) Fxyz(a.u.)=   3.7032    0.7109   10.4148     0.0000   -0.0000   -0.0000
     atom=  74, XYZ(ang) Fxyz(a.u.)=   2.4705    2.8465   10.4591    -0.0000   -0.0000    0.0000
     atom=  75, XYZ(ang) Fxyz(a.u.)=   1.2367    4.9840   10.5232    -0.0000   -0.0000    0.0000
     atom=  76, XYZ(ang) Fxyz(a.u.)=   0.0107    7.1259   10.5803    -0.0000    0.0000    0.0000
     atom=  77, XYZ(ang) Fxyz(a.u.)=  -1.2304    9.2591   10.5215     0.0000   -0.0000   -0.0000
     atom=  78, XYZ(ang) Fxyz(a.u.)=  -2.4648   11.3960   10.4583    -0.0000    0.0000   -0.0000
     atom=  79, XYZ(ang) Fxyz(a.u.)=  -3.6983   13.5314   10.4149    -0.0000    0.0000   -0.0001
     atom=  80, XYZ(ang) Fxyz(a.u.)=  -4.9326   15.6678   10.3996    -0.0000   -0.0000    0.0000
     atom=  81, XYZ(ang) Fxyz(a.u.)=   6.1707    0.7106   10.4159    -0.0000   -0.0000   -0.0000
     atom=  82, XYZ(ang) Fxyz(a.u.)=   4.9358    2.8466   10.4535     0.0000    0.0000   -0.0000
     atom=  83, XYZ(ang) Fxyz(a.u.)=   3.7029    4.9829   10.5360    -0.0000    0.0001    0.0000
     atom=  84, XYZ(ang) Fxyz(a.u.)=   2.4768    7.1183   10.6731     0.0001    0.0000    0.0000
     atom=  85, XYZ(ang) Fxyz(a.u.)=   1.2389    9.2659   10.6765    -0.0000    0.0000    0.0000
     atom=  86, XYZ(ang) Fxyz(a.u.)=   0.0021   11.3951   10.5419     0.0000    0.0000   -0.0000
     atom=  87, XYZ(ang) Fxyz(a.u.)=  -1.2323   13.5309   10.4597     0.0000   -0.0000   -0.0000
     atom=  88, XYZ(ang) Fxyz(a.u.)=  -2.4650   15.6684   10.4185    -0.0000    0.0000   -0.0000
     atom=  89, XYZ(ang) Fxyz(a.u.)=   8.6371    0.7106   10.4282    -0.0000   -0.0000   -0.0000
     atom=  90, XYZ(ang) Fxyz(a.u.)=   7.4029    2.8484   10.4439     0.0000    0.0000   -0.0001
     atom=  91, XYZ(ang) Fxyz(a.u.)=   6.1690    4.9843   10.5088     0.0000    0.0001   -0.0000
     atom=  92, XYZ(ang) Fxyz(a.u.)=   4.9279    7.1192   10.6597    -0.0000    0.0000   -0.0000
     atom=  93, XYZ(ang) Fxyz(a.u.)=   3.7036    9.2576   11.1638    -0.0000   -0.0000   -0.0001
     atom=  94, XYZ(ang) Fxyz(a.u.)=   2.4641   11.3882   10.6798    -0.0000    0.0000    0.0000
     atom=  95, XYZ(ang) Fxyz(a.u.)=   1.2355   13.5305   10.5272     0.0000   -0.0000   -0.0000
     atom=  96, XYZ(ang) Fxyz(a.u.)=   0.0025   15.6667   10.4552     0.0000    0.0000   -0.0000
     atom=  97, XYZ(ang) Fxyz(a.u.)=  11.1050    0.7104   10.4463    -0.0000    0.0000   -0.0000
     atom=  98, XYZ(ang) Fxyz(a.u.)=   9.8708    2.8480   10.4382     0.0000   -0.0000    0.0000
     atom=  99, XYZ(ang) Fxyz(a.u.)=   8.6342    4.9860   10.4732     0.0000   -0.0000    0.0000
     atom= 100, XYZ(ang) Fxyz(a.u.)=   7.3960    7.1259   10.5594     0.0000    0.0000    0.0001
     atom= 101, XYZ(ang) Fxyz(a.u.)=   6.1676    9.2667   10.6578    -0.0000   -0.0000   -0.0000
     atom= 102, XYZ(ang) Fxyz(a.u.)=   4.9430   11.3899   10.6742     0.0000   -0.0000   -0.0000
     atom= 103, XYZ(ang) Fxyz(a.u.)=   3.7034   13.5220   10.5871    -0.0000   -0.0000    0.0000
     atom= 104, XYZ(ang) Fxyz(a.u.)=   2.4690   15.6644   10.4950    -0.0000    0.0000   -0.0000
     atom= 105, XYZ(ang) Fxyz(a.u.)=  13.5723    0.7082   10.4588    -0.0000    0.0000   -0.0000
     atom= 106, XYZ(ang) Fxyz(a.u.)=  12.3382    2.8476   10.4388     0.0000   -0.0000   -0.0000
     atom= 107, XYZ(ang) Fxyz(a.u.)=  11.1024    4.9862   10.4439     0.0000   -0.0000   -0.0000
     atom= 108, XYZ(ang) Fxyz(a.u.)=   9.8683    7.1238   10.4722     0.0000    0.0000   -0.0000
     atom= 109, XYZ(ang) Fxyz(a.u.)=   8.6371    9.2595   10.5066    -0.0000   -0.0000    0.0000
     atom= 110, XYZ(ang) Fxyz(a.u.)=   7.4052   11.3959   10.5343    -0.0000   -0.0000    0.0000
     atom= 111, XYZ(ang) Fxyz(a.u.)=   6.1712   13.5312   10.5256    -0.0000   -0.0000   -0.0000
     atom= 112, XYZ(ang) Fxyz(a.u.)=   4.9375   15.6646   10.4956     0.0000    0.0000   -0.0000
     atom= 113, XYZ(ang) Fxyz(a.u.)=  16.0398    0.7105   10.4507    -0.0000    0.0000   -0.0000
     atom= 114, XYZ(ang) Fxyz(a.u.)=  14.8065    2.8477   10.4426    -0.0000    0.0000   -0.0000
     atom= 115, XYZ(ang) Fxyz(a.u.)=  13.5724    4.9853   10.4370    -0.0000    0.0000   -0.0000
     atom= 116, XYZ(ang) Fxyz(a.u.)=  12.3383    7.1219   10.4372     0.0000   -0.0000    0.0001
     atom= 117, XYZ(ang) Fxyz(a.u.)=  11.1039    9.2589   10.4431    -0.0000   -0.0000    0.0000
     atom= 118, XYZ(ang) Fxyz(a.u.)=   9.8718   11.3964   10.4515    -0.0000   -0.0000    0.0000
     atom= 119, XYZ(ang) Fxyz(a.u.)=   8.6393   13.5314   10.4579    -0.0000   -0.0000    0.0000
     atom= 120, XYZ(ang) Fxyz(a.u.)=   7.4042   15.6671   10.4576    -0.0000    0.0000   -0.0000
     atom= 121, XYZ(ang) Fxyz(a.u.)=  18.5076    0.7107   10.4358     0.0000   -0.0000    0.0000
     atom= 122, XYZ(ang) Fxyz(a.u.)=  17.2739    2.8481   10.4482    -0.0000   -0.0000   -0.0000
     atom= 123, XYZ(ang) Fxyz(a.u.)=  16.0423    4.9862   10.4537     0.0000    0.0000    0.0000
     atom= 124, XYZ(ang) Fxyz(a.u.)=  14.8067    7.1219   10.4423    -0.0000   -0.0000    0.0000
     atom= 125, XYZ(ang) Fxyz(a.u.)=  13.5725    9.2590   10.4273    -0.0000    0.0000    0.0000
     atom= 126, XYZ(ang) Fxyz(a.u.)=  12.3392   11.3950   10.4160    -0.0000    0.0000    0.0000
     atom= 127, XYZ(ang) Fxyz(a.u.)=  11.1052   13.5317   10.4138     0.0000    0.0000   -0.0000
     atom= 128, XYZ(ang) Fxyz(a.u.)=   9.8718   15.6686   10.4215     0.0000    0.0000    0.0000
     atom= 129, XYZ(ang) Fxyz(a.u.)=   3.6490    9.2898   12.6728    -0.0000   -0.0000    0.0000
     atom= 130, XYZ(ang) Fxyz(a.u.)=   4.4413    8.8093   12.9773    -0.0000    0.0000    0.0000

outputting data on grids to files...


***********************************************************
***********************************************************
               Computational Time (second)                 
***********************************************************
***********************************************************

                               Min_ID   Min_Time       Max_ID   Max_Time
   Total Computational Time =     7    11220.889          0    11221.050
   readfile                 =     9        2.736          0        2.740
   truncation               =    19       36.711         31       38.411
   MD_pac                   =     0        1.823         31        1.953
   OutData                  =    39        0.703          0        0.846
   DFT                      =    31    11176.997         19    11178.697

*** In DFT ***

   Set_OLP_Kin              =    36       41.056         31       63.349
   Set_Nonlocal             =    31       87.255         36      109.579
   Set_ProExpn_VNA          =    43      172.285         31      182.874
   Set_Hamiltonian          =    18      644.366          3      644.376
   Poisson                  =    24        7.878         33        7.881
   Diagonalization          =     0     9631.347         18     9631.365
   Mixing_DM                =    56       70.113          2       70.116
   Force                    =     8      144.585         42      144.585
   Total_Energy             =    61       47.936          0       47.947
   Set_Aden_Grid            =    31        2.417         43       13.003
   Set_Orbitals_Grid        =    19       19.798         31       29.277
   Set_Density_Grid         =    24      220.935         62      250.586
   RestartFileDFT           =    31        2.586         62       10.689
   Mulliken_Charge          =    50        0.514          6        0.515
   FFT(2D)_Density          =     5        8.488         53        8.501
   Others                   =    63        3.647         24       41.540

The calculation was normally finished.
