
The number of threads in each node for OpenMP parallelization is 1.


*******************************************************
*******************************************************
 Welcome to OpenMX   Ver. 3.9.9                           
 Copyright (C), 2002-2019, T. Ozaki                    
 OpenMX comes with ABSOLUTELY NO WARRANTY.             
 This is free software, and you are welcome to         
 redistribute it under the constitution of the GNU-GPL.
*******************************************************
*******************************************************

Automatic determination of Kerker_factor:   3.992945286074


<Input_std>  Your input file was normally read.
<Input_std>  The system includes 2 species and 129 atoms.

*******************************************************
                     PAO and VPS                       
*******************************************************

<SetPara_DFT>  PAOs of species C were normally found.
<SetPara_DFT>  PAOs of species O were normally found.
<SetPara_DFT>  VPSs of species C were normally found.
               C_PBE19.vps is j-dependent.
               In case of scf.SpinOrbit.Coupling=off,
               j-dependent pseudo potentials are averaged by j-degeneracy,
               which corresponds to a scalar relativistic treatment.
<SetPara_DFT>  VPSs of species O were normally found.
               O_PBE19.vps is j-dependent.
               In case of scf.SpinOrbit.Coupling=off,
               j-dependent pseudo potentials are averaged by j-degeneracy,
               which corresponds to a scalar relativistic treatment.

*******************************************************
     Fourier transform of PAO and projectors of VNL    
*******************************************************

<FT_PAO>          Fourier transform of pseudo atomic orbitals
<FT_NLP>          Fourier transform of non-local projectors
<FT_ProExpn_VNA>  Fourier transform of VNA separable projectors
<FT_VNA>          Fourier transform of VNA potentials
<FT_ProductPAO>   Fourier transform of product of PAOs

*******************************************************
  Allocation of atoms to processors at MD_iter=    1     
*******************************************************

 proc =   0  # of atoms=   2  estimated weight=         2.00000
 proc =   1  # of atoms=   2  estimated weight=         2.00000
 proc =   2  # of atoms=   2  estimated weight=         2.00000
 proc =   3  # of atoms=   2  estimated weight=         2.00000
 proc =   4  # of atoms=   2  estimated weight=         2.00000
 proc =   5  # of atoms=   2  estimated weight=         2.00000
 proc =   6  # of atoms=   2  estimated weight=         2.00000
 proc =   7  # of atoms=   2  estimated weight=         2.00000
 proc =   8  # of atoms=   2  estimated weight=         2.00000
 proc =   9  # of atoms=   2  estimated weight=         2.00000
 proc =  10  # of atoms=   2  estimated weight=         2.00000
 proc =  11  # of atoms=   2  estimated weight=         2.00000
 proc =  12  # of atoms=   2  estimated weight=         2.00000
 proc =  13  # of atoms=   2  estimated weight=         2.00000
 proc =  14  # of atoms=   2  estimated weight=         2.00000
 proc =  15  # of atoms=   2  estimated weight=         2.00000
 proc =  16  # of atoms=   2  estimated weight=         2.00000
 proc =  17  # of atoms=   2  estimated weight=         2.00000
 proc =  18  # of atoms=   2  estimated weight=         2.00000
 proc =  19  # of atoms=   2  estimated weight=         2.00000
 proc =  20  # of atoms=   2  estimated weight=         2.00000
 proc =  21  # of atoms=   2  estimated weight=         2.00000
 proc =  22  # of atoms=   2  estimated weight=         2.00000
 proc =  23  # of atoms=   2  estimated weight=         2.00000
 proc =  24  # of atoms=   2  estimated weight=         2.00000
 proc =  25  # of atoms=   2  estimated weight=         2.00000
 proc =  26  # of atoms=   2  estimated weight=         2.00000
 proc =  27  # of atoms=   2  estimated weight=         2.00000
 proc =  28  # of atoms=   2  estimated weight=         2.00000
 proc =  29  # of atoms=   2  estimated weight=         2.00000
 proc =  30  # of atoms=   2  estimated weight=         2.00000
 proc =  31  # of atoms=   2  estimated weight=         2.00000
 proc =  32  # of atoms=   2  estimated weight=         2.00000
 proc =  33  # of atoms=   2  estimated weight=         2.00000
 proc =  34  # of atoms=   2  estimated weight=         2.00000
 proc =  35  # of atoms=   2  estimated weight=         2.00000
 proc =  36  # of atoms=   2  estimated weight=         2.00000
 proc =  37  # of atoms=   2  estimated weight=         2.00000
 proc =  38  # of atoms=   2  estimated weight=         2.00000
 proc =  39  # of atoms=   2  estimated weight=         2.00000
 proc =  40  # of atoms=   2  estimated weight=         2.00000
 proc =  41  # of atoms=   2  estimated weight=         2.00000
 proc =  42  # of atoms=   2  estimated weight=         2.00000
 proc =  43  # of atoms=   2  estimated weight=         2.00000
 proc =  44  # of atoms=   2  estimated weight=         2.00000
 proc =  45  # of atoms=   2  estimated weight=         2.00000
 proc =  46  # of atoms=   2  estimated weight=         2.00000
 proc =  47  # of atoms=   2  estimated weight=         2.00000
 proc =  48  # of atoms=   2  estimated weight=         2.00000
 proc =  49  # of atoms=   2  estimated weight=         2.00000
 proc =  50  # of atoms=   2  estimated weight=         2.00000
 proc =  51  # of atoms=   2  estimated weight=         2.00000
 proc =  52  # of atoms=   2  estimated weight=         2.00000
 proc =  53  # of atoms=   2  estimated weight=         2.00000
 proc =  54  # of atoms=   2  estimated weight=         2.00000
 proc =  55  # of atoms=   2  estimated weight=         2.00000
 proc =  56  # of atoms=   2  estimated weight=         2.00000
 proc =  57  # of atoms=   2  estimated weight=         2.00000
 proc =  58  # of atoms=   2  estimated weight=         2.00000
 proc =  59  # of atoms=   2  estimated weight=         2.00000
 proc =  60  # of atoms=   2  estimated weight=         2.00000
 proc =  61  # of atoms=   2  estimated weight=         2.00000
 proc =  62  # of atoms=   2  estimated weight=         2.00000
 proc =  63  # of atoms=   3  estimated weight=         3.00000




*******************************************************
        Analysis of neighbors and setting of grids        
*******************************************************

TFNAN=    5852   Average FNAN=  45.36434
TSNAN=       0   Average SNAN=   0.00000
<truncation> CpyCell= 1 ct_AN=   1 FNAN SNAN  45   0
<truncation> CpyCell= 1 ct_AN=   2 FNAN SNAN  45   0
<truncation> CpyCell= 1 ct_AN=   3 FNAN SNAN  45   0
<truncation> CpyCell= 1 ct_AN=   4 FNAN SNAN  45   0
<truncation> CpyCell= 1 ct_AN=   5 FNAN SNAN  45   0
<truncation> CpyCell= 1 ct_AN=   6 FNAN SNAN  45   0
<truncation> CpyCell= 1 ct_AN=   7 FNAN SNAN  45   0
<truncation> CpyCell= 1 ct_AN=   8 FNAN SNAN  45   0
<truncation> CpyCell= 1 ct_AN=   9 FNAN SNAN  45   0
<truncation> CpyCell= 1 ct_AN=  10 FNAN SNAN  46   0
<truncation> CpyCell= 1 ct_AN=  11 FNAN SNAN  46   0
<truncation> CpyCell= 1 ct_AN=  12 FNAN SNAN  46   0
<truncation> CpyCell= 1 ct_AN=  13 FNAN SNAN  45   0
<truncation> CpyCell= 1 ct_AN=  14 FNAN SNAN  45   0
<truncation> CpyCell= 1 ct_AN=  15 FNAN SNAN  45   0
<truncation> CpyCell= 1 ct_AN=  16 FNAN SNAN  45   0
<truncation> CpyCell= 1 ct_AN=  17 FNAN SNAN  45   0
<truncation> CpyCell= 1 ct_AN=  18 FNAN SNAN  46   0
<truncation> CpyCell= 1 ct_AN=  19 FNAN SNAN  46   0
<truncation> CpyCell= 1 ct_AN=  20 FNAN SNAN  46   0
     ..........
     ......

TFNAN=    5852   Average FNAN=  45.36434
TSNAN=       0   Average SNAN=   0.00000
<truncation> CpyCell= 2 ct_AN=   1 FNAN SNAN  45   0
<truncation> CpyCell= 2 ct_AN=   2 FNAN SNAN  45   0
<truncation> CpyCell= 2 ct_AN=   3 FNAN SNAN  45   0
<truncation> CpyCell= 2 ct_AN=   4 FNAN SNAN  45   0
<truncation> CpyCell= 2 ct_AN=   5 FNAN SNAN  45   0
<truncation> CpyCell= 2 ct_AN=   6 FNAN SNAN  45   0
<truncation> CpyCell= 2 ct_AN=   7 FNAN SNAN  45   0
<truncation> CpyCell= 2 ct_AN=   8 FNAN SNAN  45   0
<truncation> CpyCell= 2 ct_AN=   9 FNAN SNAN  45   0
<truncation> CpyCell= 2 ct_AN=  10 FNAN SNAN  46   0
<truncation> CpyCell= 2 ct_AN=  11 FNAN SNAN  46   0
<truncation> CpyCell= 2 ct_AN=  12 FNAN SNAN  46   0
<truncation> CpyCell= 2 ct_AN=  13 FNAN SNAN  45   0
<truncation> CpyCell= 2 ct_AN=  14 FNAN SNAN  45   0
<truncation> CpyCell= 2 ct_AN=  15 FNAN SNAN  45   0
<truncation> CpyCell= 2 ct_AN=  16 FNAN SNAN  45   0
<truncation> CpyCell= 2 ct_AN=  17 FNAN SNAN  45   0
<truncation> CpyCell= 2 ct_AN=  18 FNAN SNAN  46   0
<truncation> CpyCell= 2 ct_AN=  19 FNAN SNAN  46   0
<truncation> CpyCell= 2 ct_AN=  20 FNAN SNAN  46   0
     ..........
     ......

TFNAN=    5852   Average FNAN=  45.36434
TSNAN=       0   Average SNAN=   0.00000
<truncation> CpyCell= 2 ct_AN=   1 FNAN SNAN  45   0
<truncation> CpyCell= 2 ct_AN=   2 FNAN SNAN  45   0
<truncation> CpyCell= 2 ct_AN=   3 FNAN SNAN  45   0
<truncation> CpyCell= 2 ct_AN=   4 FNAN SNAN  45   0
<truncation> CpyCell= 2 ct_AN=   5 FNAN SNAN  45   0
<truncation> CpyCell= 2 ct_AN=   6 FNAN SNAN  45   0
<truncation> CpyCell= 2 ct_AN=   7 FNAN SNAN  45   0
<truncation> CpyCell= 2 ct_AN=   8 FNAN SNAN  45   0
<truncation> CpyCell= 2 ct_AN=   9 FNAN SNAN  45   0
<truncation> CpyCell= 2 ct_AN=  10 FNAN SNAN  46   0
<truncation> CpyCell= 2 ct_AN=  11 FNAN SNAN  46   0
<truncation> CpyCell= 2 ct_AN=  12 FNAN SNAN  46   0
<truncation> CpyCell= 2 ct_AN=  13 FNAN SNAN  45   0
<truncation> CpyCell= 2 ct_AN=  14 FNAN SNAN  45   0
<truncation> CpyCell= 2 ct_AN=  15 FNAN SNAN  45   0
<truncation> CpyCell= 2 ct_AN=  16 FNAN SNAN  45   0
<truncation> CpyCell= 2 ct_AN=  17 FNAN SNAN  45   0
<truncation> CpyCell= 2 ct_AN=  18 FNAN SNAN  46   0
<truncation> CpyCell= 2 ct_AN=  19 FNAN SNAN  46   0
<truncation> CpyCell= 2 ct_AN=  20 FNAN SNAN  46   0
     ..........
     ......

<Check_System> The system is slab.
lattice vectors (bohr)
A  = 37.299978480367,  0.000000000000,  0.000000000000
B  = -18.649989240184, 32.302728872609,  0.000000000000
C  =  0.000000000000,  0.000000000000, 39.684245760157
reciprocal lattice vectors (bohr^-1)
RA =  0.168450105420,  0.097254713866, -0.000000000000
RB =  0.000000000000,  0.194509427732,  0.000000000000
RC =  0.000000000000, -0.000000000000,  0.158329462658
Grid_Origin  0.033733831399  0.089729814143  0.110699391544
Cell_Volume =  47815.194201431834 (Bohr^3)
GridVol     =      0.006832303698 (Bohr^3)
Grid_Origin  0.033733831399  0.089729814143  0.110699391544
Cell_Volume =  47815.194201431834 (Bohr^3)
GridVol     =      0.006832303698 (Bohr^3)
<UCell_Box> Info. of cutoff energy and num. of grids
lattice vectors (bohr)
A  = 37.299978480367,  0.000000000000,  0.000000000000
B  = -18.649989240184, 32.302728872609,  0.000000000000
C  =  0.000000000000,  0.000000000000, 39.684245760157
reciprocal lattice vectors (bohr^-1)
RA =  0.168450105420,  0.097254713866, -0.000000000000
RB =  0.000000000000,  0.194509427732,  0.000000000000
RC =  0.000000000000, -0.000000000000,  0.158329462658
Required cutoff energy (Ryd) for 3D-grids = 300.0000
    Used cutoff energy (Ryd) for 3D-grids = 306.4547, 306.4547, 292.3957
Num. of grids of a-, b-, and c-axes = 180, 180, 216
Grid_Origin  0.033733831399  0.089729814143  0.110699391544
Cell_Volume =  47815.194201431834 (Bohr^3)
GridVol     =      0.006832303698 (Bohr^3)
Cell vectors (bohr) of the grid cell (gtv)
  gtv_a =  0.207222102669,  0.000000000000,  0.000000000000
  gtv_b = -0.103611051334,  0.179459604848,  0.000000000000
  gtv_c =  0.000000000000,  0.000000000000,  0.183723360001
  |gtv_a| =  0.207222102669
  |gtv_b| =  0.207222102419
  |gtv_c| =  0.183723360001
Num. of grids overlapping with atom    1 = 132385
Num. of grids overlapping with atom    2 = 132446
Num. of grids overlapping with atom    3 = 132385
Num. of grids overlapping with atom    4 = 132446
Num. of grids overlapping with atom    5 = 132385
Num. of grids overlapping with atom    6 = 132446
Num. of grids overlapping with atom    7 = 132385
Num. of grids overlapping with atom    8 = 132446
Num. of grids overlapping with atom    9 = 132383
Num. of grids overlapping with atom   10 = 132390
Num. of grids overlapping with atom   11 = 132383
Num. of grids overlapping with atom   12 = 132390
Num. of grids overlapping with atom   13 = 132383
Num. of grids overlapping with atom   14 = 132390
Num. of grids overlapping with atom   15 = 132383
Num. of grids overlapping with atom   16 = 132390
Num. of grids overlapping with atom   17 = 132385
Num. of grids overlapping with atom   18 = 132446
Num. of grids overlapping with atom   19 = 132385
Num. of grids overlapping with atom   20 = 132446
     ..........
     ......


*******************************************************
             SCF calculation at MD = 1                
*******************************************************

<MD= 1>  Calculation of the overlap matrix
<MD= 1>  Calculation of the nonlocal matrix
<MD= 1>  Calculation of the VNA projector matrix

******************* MD= 1  SCF= 1 *******************
<Band>  Solving the eigenvalue problem...
 KGrids1:  -0.43750  -0.31250  -0.18750  -0.06250   0.06250   0.18750   0.31250   0.43750 
 KGrids2:  -0.43750  -0.31250  -0.18750  -0.06250   0.06250   0.18750   0.31250   0.43750 
 KGrids3:   0.00000 
<Band_DFT>  Eigen, time=24.520726
<Band_DFT>  DM, time=0.000072
    1    C  MulP   1.9986  1.9986 sum   3.9971
    2    C  MulP   1.9993  1.9993 sum   3.9986
    3    C  MulP   1.9968  1.9968 sum   3.9935
    4    C  MulP   1.9997  1.9997 sum   3.9995
    5    C  MulP   1.9995  1.9995 sum   3.9991
    6    C  MulP   1.9989  1.9989 sum   3.9978
    7    C  MulP   1.9995  1.9995 sum   3.9990
    8    C  MulP   1.9992  1.9992 sum   3.9985
    9    C  MulP   1.9994  1.9994 sum   3.9988
   10    C  MulP   1.9987  1.9987 sum   3.9974
   11    C  MulP   1.9943  1.9943 sum   3.9885
   12    C  MulP   1.9995  1.9995 sum   3.9991
   13    C  MulP   1.9986  1.9986 sum   3.9972
   14    C  MulP   1.9997  1.9997 sum   3.9995
   15    C  MulP   1.9995  1.9995 sum   3.9990
   16    C  MulP   1.9989  1.9989 sum   3.9979
   17    C  MulP   1.9994  1.9994 sum   3.9987
   18    C  MulP   1.9969  1.9969 sum   3.9938
   19    C  MulP   2.0025  2.0025 sum   4.0051
   20    C  MulP   1.9916  1.9916 sum   3.9831
     ..........
     ......

 Sum of MulP: up   =   259.00000 down          =   259.00000
              total=   518.00000 ideal(neutral)=   518.00000
<DFT>  Total Spin Moment (muB) =  0.000000000000
<DFT>  Mixing_weight= 0.050000000000
<DFT>  Uele   = -210.961895667818  dUele     =   1.000000000000
<DFT>  NormRD =    1.000000000000  Criterion =   0.000000010000

******************* MD= 1  SCF= 2 *******************
<Poisson>  Poisson's equation using FFT...
<Set_Hamiltonian>  Hamiltonian matrix for VNA+dVH+Vxc...
<Band>  Solving the eigenvalue problem...
 KGrids1:  -0.43750  -0.31250  -0.18750  -0.06250   0.06250   0.18750   0.31250   0.43750 
 KGrids2:  -0.43750  -0.31250  -0.18750  -0.06250   0.06250   0.18750   0.31250   0.43750 
 KGrids3:   0.00000 
<Band_DFT>  Eigen, time=14.188153
<Band_DFT>  DM, time=0.000000
    1    C  MulP   1.9986  1.9986 sum   3.9971
    2    C  MulP   1.9993  1.9993 sum   3.9986
    3    C  MulP   1.9968  1.9968 sum   3.9935
    4    C  MulP   1.9997  1.9997 sum   3.9995
    5    C  MulP   1.9995  1.9995 sum   3.9991
    6    C  MulP   1.9989  1.9989 sum   3.9978
    7    C  MulP   1.9995  1.9995 sum   3.9990
    8    C  MulP   1.9992  1.9992 sum   3.9985
    9    C  MulP   1.9994  1.9994 sum   3.9988
   10    C  MulP   1.9987  1.9987 sum   3.9974
   11    C  MulP   1.9943  1.9943 sum   3.9885
   12    C  MulP   1.9995  1.9995 sum   3.9991
   13    C  MulP   1.9986  1.9986 sum   3.9972
   14    C  MulP   1.9997  1.9997 sum   3.9995
   15    C  MulP   1.9995  1.9995 sum   3.9990
   16    C  MulP   1.9989  1.9989 sum   3.9979
   17    C  MulP   1.9994  1.9994 sum   3.9987
   18    C  MulP   1.9969  1.9969 sum   3.9938
   19    C  MulP   2.0025  2.0025 sum   4.0051
   20    C  MulP   1.9916  1.9916 sum   3.9831
     ..........
     ......

 Sum of MulP: up   =   259.00000 down          =   259.00000
              total=   518.00000 ideal(neutral)=   518.00000
<DFT>  Total Spin Moment (muB) =  0.000000000000
<DFT>  Mixing_weight= 0.010000000000
<DFT>  Uele   = -210.961895667818  dUele     =   0.000000000000
<DFT>  NormRD =   10.058920764984  Criterion =   0.000000010000

******************* MD= 1  SCF= 3 *******************
<Poisson>  Poisson's equation using FFT...
<Set_Hamiltonian>  Hamiltonian matrix for VNA+dVH+Vxc...
<Band>  Solving the eigenvalue problem...
 KGrids1:  -0.43750  -0.31250  -0.18750  -0.06250   0.06250   0.18750   0.31250   0.43750 
 KGrids2:  -0.43750  -0.31250  -0.18750  -0.06250   0.06250   0.18750   0.31250   0.43750 
 KGrids3:   0.00000 
<Band_DFT>  Eigen, time=14.227264
<Band_DFT>  DM, time=0.000000
    1    C  MulP   1.9986  1.9986 sum   3.9972
    2    C  MulP   1.9993  1.9993 sum   3.9986
    3    C  MulP   1.9969  1.9969 sum   3.9938
    4    C  MulP   1.9997  1.9997 sum   3.9994
    5    C  MulP   1.9996  1.9996 sum   3.9991
    6    C  MulP   1.9989  1.9989 sum   3.9979
    7    C  MulP   1.9995  1.9995 sum   3.9990
    8    C  MulP   1.9993  1.9993 sum   3.9985
    9    C  MulP   1.9994  1.9994 sum   3.9989
   10    C  MulP   1.9987  1.9987 sum   3.9974
   11    C  MulP   1.9945  1.9945 sum   3.9890
   12    C  MulP   1.9995  1.9995 sum   3.9991
   13    C  MulP   1.9986  1.9986 sum   3.9973
   14    C  MulP   1.9997  1.9997 sum   3.9995
   15    C  MulP   1.9995  1.9995 sum   3.9990
   16    C  MulP   1.9990  1.9990 sum   3.9979
   17    C  MulP   1.9994  1.9994 sum   3.9988
   18    C  MulP   1.9970  1.9970 sum   3.9940
   19    C  MulP   2.0027  2.0027 sum   4.0054
   20    C  MulP   1.9919  1.9919 sum   3.9839
     ..........
     ......

 Sum of MulP: up   =   259.00000 down          =   259.00000
              total=   518.00000 ideal(neutral)=   518.00000
<DFT>  Total Spin Moment (muB) =  0.000000000000
<DFT>  Mixing_weight= 0.300000000000
<DFT>  Uele   = -211.352174243013  dUele     =   0.390278575196
<DFT>  NormRD =    9.938830519816  Criterion =   0.000000010000

******************* MD= 1  SCF= 4 *******************
<Poisson>  Poisson's equation using FFT...
<Set_Hamiltonian>  Hamiltonian matrix for VNA+dVH+Vxc...
<Band>  Solving the eigenvalue problem...
 KGrids1:  -0.43750  -0.31250  -0.18750  -0.06250   0.06250   0.18750   0.31250   0.43750 
 KGrids2:  -0.43750  -0.31250  -0.18750  -0.06250   0.06250   0.18750   0.31250   0.43750 
 KGrids3:   0.00000 
<Band_DFT>  Eigen, time=14.212547
<Band_DFT>  DM, time=0.000000
    1    C  MulP   1.9999  1.9999 sum   3.9998
    2    C  MulP   2.0000  2.0000 sum   4.0000
    3    C  MulP   2.0010  2.0010 sum   4.0020
    4    C  MulP   1.9994  1.9994 sum   3.9989
    5    C  MulP   1.9997  1.9997 sum   3.9995
    6    C  MulP   1.9998  1.9998 sum   3.9996
    7    C  MulP   1.9998  1.9998 sum   3.9996
    8    C  MulP   1.9996  1.9996 sum   3.9992
    9    C  MulP   2.0000  2.0000 sum   4.0000
   10    C  MulP   1.9997  1.9997 sum   3.9994
   11    C  MulP   2.0016  2.0016 sum   4.0031
   12    C  MulP   2.0002  2.0002 sum   4.0004
   13    C  MulP   2.0000  2.0000 sum   3.9999
   14    C  MulP   1.9997  1.9997 sum   3.9993
   15    C  MulP   1.9998  1.9998 sum   3.9996
   16    C  MulP   2.0000  2.0000 sum   4.0001
   17    C  MulP   2.0000  2.0000 sum   4.0000
   18    C  MulP   2.0009  2.0009 sum   4.0017
   19    C  MulP   2.0089  2.0089 sum   4.0177
   20    C  MulP   2.0064  2.0064 sum   4.0128
     ..........
     ......

 Sum of MulP: up   =   259.00000 down          =   259.00000
              total=   518.00000 ideal(neutral)=   518.00000
<DFT>  Total Spin Moment (muB) =  0.000000000000
<DFT>  Mixing_weight= 0.300000000000
<DFT>  Uele   = -222.927227797945  dUele     =  11.575053554931
<DFT>  NormRD =    6.501049803727  Criterion =   0.000000010000

******************* MD= 1  SCF= 5 *******************
<Poisson>  Poisson's equation using FFT...
<Set_Hamiltonian>  Hamiltonian matrix for VNA+dVH+Vxc...
<Band>  Solving the eigenvalue problem...
 KGrids1:  -0.43750  -0.31250  -0.18750  -0.06250   0.06250   0.18750   0.31250   0.43750 
 KGrids2:  -0.43750  -0.31250  -0.18750  -0.06250   0.06250   0.18750   0.31250   0.43750 
 KGrids3:   0.00000 
<Band_DFT>  Eigen, time=14.210531
<Band_DFT>  DM, time=0.000001
    1    C  MulP   1.9998  1.9998 sum   3.9996
    2    C  MulP   1.9998  1.9998 sum   3.9996
    3    C  MulP   2.0001  2.0001 sum   4.0003
    4    C  MulP   1.9997  1.9997 sum   3.9994
    5    C  MulP   1.9999  1.9999 sum   3.9999
    6    C  MulP   1.9998  1.9998 sum   3.9996
    7    C  MulP   1.9999  1.9999 sum   3.9997
    8    C  MulP   1.9997  1.9997 sum   3.9994
    9    C  MulP   2.0000  2.0000 sum   4.0001
   10    C  MulP   1.9995  1.9995 sum   3.9991
   11    C  MulP   1.9998  1.9998 sum   3.9996
   12    C  MulP   2.0002  2.0002 sum   4.0004
   13    C  MulP   1.9999  1.9999 sum   3.9998
   14    C  MulP   1.9998  1.9998 sum   3.9997
   15    C  MulP   1.9999  1.9999 sum   3.9998
   16    C  MulP   2.0000  2.0000 sum   3.9999
   17    C  MulP   2.0000  2.0000 sum   4.0000
   18    C  MulP   2.0002  2.0002 sum   4.0005
   19    C  MulP   2.0080  2.0080 sum   4.0159
   20    C  MulP   2.0039  2.0039 sum   4.0078
     ..........
     ......

 Sum of MulP: up   =   259.00000 down          =   259.00000
              total=   518.00000 ideal(neutral)=   518.00000
<DFT>  Total Spin Moment (muB) =  0.000000000000
<DFT>  Mixing_weight= 0.300000000000
<DFT>  Uele   = -230.553544556045  dUele     =   7.626316758100
<DFT>  NormRD =    4.401693452260  Criterion =   0.000000010000

******************* MD= 1  SCF= 6 *******************
<Poisson>  Poisson's equation using FFT...
<Set_Hamiltonian>  Hamiltonian matrix for VNA+dVH+Vxc...
<Band>  Solving the eigenvalue problem...
 KGrids1:  -0.43750  -0.31250  -0.18750  -0.06250   0.06250   0.18750   0.31250   0.43750 
 KGrids2:  -0.43750  -0.31250  -0.18750  -0.06250   0.06250   0.18750   0.31250   0.43750 
 KGrids3:   0.00000 
<Band_DFT>  Eigen, time=14.216672
<Band_DFT>  DM, time=0.000001
    1    C  MulP   1.9998  1.9998 sum   3.9995
    2    C  MulP   1.9998  1.9998 sum   3.9995
    3    C  MulP   1.9998  1.9998 sum   3.9996
    4    C  MulP   1.9997  1.9997 sum   3.9995
    5    C  MulP   2.0000  2.0000 sum   3.9999
    6    C  MulP   1.9998  1.9998 sum   3.9995
    7    C  MulP   1.9999  1.9999 sum   3.9998
    8    C  MulP   1.9997  1.9997 sum   3.9994
    9    C  MulP   2.0000  2.0000 sum   4.0001
   10    C  MulP   1.9996  1.9996 sum   3.9992
   11    C  MulP   1.9992  1.9992 sum   3.9984
   12    C  MulP   2.0001  2.0001 sum   4.0003
   13    C  MulP   1.9999  1.9999 sum   3.9998
   14    C  MulP   1.9999  1.9999 sum   3.9998
   15    C  MulP   1.9999  1.9999 sum   3.9999
   16    C  MulP   1.9999  1.9999 sum   3.9999
   17    C  MulP   2.0000  2.0000 sum   4.0000
   18    C  MulP   2.0001  2.0001 sum   4.0002
   19    C  MulP   2.0074  2.0074 sum   4.0148
   20    C  MulP   2.0025  2.0025 sum   4.0050
     ..........
     ......

 Sum of MulP: up   =   259.00000 down          =   259.00000
              total=   518.00000 ideal(neutral)=   518.00000
<DFT>  Total Spin Moment (muB) =  0.000000000000
<DFT>  Mixing_weight= 0.300000000000
<DFT>  Uele   = -235.540036301296  dUele     =   4.986491745252
<DFT>  NormRD =    2.998722615249  Criterion =   0.000000010000

******************* MD= 1  SCF= 7 *******************
<Poisson>  Poisson's equation using FFT...
<Set_Hamiltonian>  Hamiltonian matrix for VNA+dVH+Vxc...
<Band>  Solving the eigenvalue problem...
 KGrids1:  -0.43750  -0.31250  -0.18750  -0.06250   0.06250   0.18750   0.31250   0.43750 
 KGrids2:  -0.43750  -0.31250  -0.18750  -0.06250   0.06250   0.18750   0.31250   0.43750 
 KGrids3:   0.00000 
<Band_DFT>  Eigen, time=14.192871
<Band_DFT>  DM, time=0.000000
    1    C  MulP   1.9998  1.9998 sum   3.9996
    2    C  MulP   1.9998  1.9998 sum   3.9996
    3    C  MulP   1.9998  1.9998 sum   3.9996
    4    C  MulP   1.9997  1.9997 sum   3.9995
    5    C  MulP   2.0000  2.0000 sum   3.9999
    6    C  MulP   1.9998  1.9998 sum   3.9995
    7    C  MulP   1.9999  1.9999 sum   3.9998
    8    C  MulP   1.9997  1.9997 sum   3.9994
    9    C  MulP   2.0000  2.0000 sum   4.0001
   10    C  MulP   1.9996  1.9996 sum   3.9992
   11    C  MulP   1.9992  1.9992 sum   3.9984
   12    C  MulP   2.0001  2.0001 sum   4.0002
   13    C  MulP   1.9999  1.9999 sum   3.9998
   14    C  MulP   1.9999  1.9999 sum   3.9998
   15    C  MulP   1.9999  1.9999 sum   3.9999
   16    C  MulP   2.0000  2.0000 sum   3.9999
   17    C  MulP   2.0000  2.0000 sum   4.0000
   18    C  MulP   2.0002  2.0002 sum   4.0003
   19    C  MulP   2.0074  2.0074 sum   4.0147
   20    C  MulP   2.0023  2.0023 sum   4.0046
     ..........
     ......

 Sum of MulP: up   =   259.00000 down          =   259.00000
              total=   518.00000 ideal(neutral)=   518.00000
<DFT>  Total Spin Moment (muB) =  0.000000000000
<DFT>  Mixing_weight= 0.300000000000
<DFT>  Uele   = -238.867199484823  dUele     =   3.327163183526
<DFT>  NormRD =    2.053530320910  Criterion =   0.000000010000

******************* MD= 1  SCF= 8 *******************
<Poisson>  Poisson's equation using FFT...
<Set_Hamiltonian>  Hamiltonian matrix for VNA+dVH+Vxc...
<Band>  Solving the eigenvalue problem...
 KGrids1:  -0.43750  -0.31250  -0.18750  -0.06250   0.06250   0.18750   0.31250   0.43750 
 KGrids2:  -0.43750  -0.31250  -0.18750  -0.06250   0.06250   0.18750   0.31250   0.43750 
 KGrids3:   0.00000 
<Band_DFT>  Eigen, time=14.188071
<Band_DFT>  DM, time=0.000000
    1    C  MulP   1.9998  1.9998 sum   3.9996
    2    C  MulP   1.9998  1.9998 sum   3.9996
    3    C  MulP   1.9998  1.9998 sum   3.9996
    4    C  MulP   1.9997  1.9997 sum   3.9995
    5    C  MulP   2.0000  2.0000 sum   3.9999
    6    C  MulP   1.9998  1.9998 sum   3.9995
    7    C  MulP   1.9999  1.9999 sum   3.9998
    8    C  MulP   1.9997  1.9997 sum   3.9994
    9    C  MulP   2.0001  2.0001 sum   4.0001
   10    C  MulP   1.9996  1.9996 sum   3.9993
   11    C  MulP   1.9992  1.9992 sum   3.9984
   12    C  MulP   2.0001  2.0001 sum   4.0003
   13    C  MulP   1.9999  1.9999 sum   3.9999
   14    C  MulP   1.9999  1.9999 sum   3.9999
   15    C  MulP   2.0000  2.0000 sum   3.9999
   16    C  MulP   2.0000  2.0000 sum   3.9999
   17    C  MulP   2.0000  2.0000 sum   4.0001
   18    C  MulP   2.0002  2.0002 sum   4.0003
   19    C  MulP   2.0074  2.0074 sum   4.0148
   20    C  MulP   2.0022  2.0022 sum   4.0045
     ..........
     ......

 Sum of MulP: up   =   259.00000 down          =   259.00000
              total=   518.00000 ideal(neutral)=   518.00000
<DFT>  Total Spin Moment (muB) =  0.000000000000
<DFT>  Mixing_weight= 0.300000000000
<DFT>  Uele   = -241.150474934094  dUele     =   2.283275449271
<DFT>  NormRD =    1.412452261767  Criterion =   0.000000010000

******************* MD= 1  SCF= 9 *******************
<Poisson>  Poisson's equation using FFT...
<Set_Hamiltonian>  Hamiltonian matrix for VNA+dVH+Vxc...
<Band>  Solving the eigenvalue problem...
 KGrids1:  -0.43750  -0.31250  -0.18750  -0.06250   0.06250   0.18750   0.31250   0.43750 
 KGrids2:  -0.43750  -0.31250  -0.18750  -0.06250   0.06250   0.18750   0.31250   0.43750 
 KGrids3:   0.00000 
<Band_DFT>  Eigen, time=14.197319
<Band_DFT>  DM, time=0.000000
    1    C  MulP   1.9998  1.9998 sum   3.9996
    2    C  MulP   1.9998  1.9998 sum   3.9996
    3    C  MulP   1.9998  1.9998 sum   3.9997
    4    C  MulP   1.9997  1.9997 sum   3.9995
    5    C  MulP   2.0000  2.0000 sum   3.9999
    6    C  MulP   1.9998  1.9998 sum   3.9995
    7    C  MulP   1.9999  1.9999 sum   3.9999
    8    C  MulP   1.9997  1.9997 sum   3.9994
    9    C  MulP   2.0001  2.0001 sum   4.0001
   10    C  MulP   1.9997  1.9997 sum   3.9993
   11    C  MulP   1.9992  1.9992 sum   3.9985
   12    C  MulP   2.0001  2.0001 sum   4.0003
   13    C  MulP   1.9999  1.9999 sum   3.9999
   14    C  MulP   1.9999  1.9999 sum   3.9999
   15    C  MulP   2.0000  2.0000 sum   3.9999
   16    C  MulP   2.0000  2.0000 sum   3.9999
   17    C  MulP   2.0000  2.0000 sum   4.0001
   18    C  MulP   2.0002  2.0002 sum   4.0003
   19    C  MulP   2.0074  2.0074 sum   4.0148
   20    C  MulP   2.0022  2.0022 sum   4.0044
     ..........
     ......

 Sum of MulP: up   =   259.00000 down          =   259.00000
              total=   518.00000 ideal(neutral)=   518.00000
<DFT>  Total Spin Moment (muB) =  0.000000000000
<DFT>  Mixing_weight= 0.300000000000
<DFT>  Uele   = -242.763598427327  dUele     =   1.613123493233
<DFT>  NormRD =    0.975238200530  Criterion =   0.000000010000

******************* MD= 1  SCF=10 *******************
<Poisson>  Poisson's equation using FFT...
<Set_Hamiltonian>  Hamiltonian matrix for VNA+dVH+Vxc...
<Band>  Solving the eigenvalue problem...
 KGrids1:  -0.43750  -0.31250  -0.18750  -0.06250   0.06250   0.18750   0.31250   0.43750 
 KGrids2:  -0.43750  -0.31250  -0.18750  -0.06250   0.06250   0.18750   0.31250   0.43750 
 KGrids3:   0.00000 
<Band_DFT>  Eigen, time=14.201720
<Band_DFT>  DM, time=0.000001
    1    C  MulP   1.9998  1.9998 sum   3.9996
    2    C  MulP   1.9998  1.9998 sum   3.9996
    3    C  MulP   1.9998  1.9998 sum   3.9997
    4    C  MulP   1.9997  1.9997 sum   3.9995
    5    C  MulP   2.0000  2.0000 sum   3.9999
    6    C  MulP   1.9998  1.9998 sum   3.9995
    7    C  MulP   1.9999  1.9999 sum   3.9999
    8    C  MulP   1.9997  1.9997 sum   3.9995
    9    C  MulP   2.0001  2.0001 sum   4.0001
   10    C  MulP   1.9997  1.9997 sum   3.9993
   11    C  MulP   1.9992  1.9992 sum   3.9985
   12    C  MulP   2.0001  2.0001 sum   4.0003
   13    C  MulP   1.9999  1.9999 sum   3.9999
   14    C  MulP   1.9999  1.9999 sum   3.9999
   15    C  MulP   2.0000  2.0000 sum   3.9999
   16    C  MulP   2.0000  2.0000 sum   3.9999
   17    C  MulP   2.0000  2.0000 sum   4.0001
   18    C  MulP   2.0002  2.0002 sum   4.0003
   19    C  MulP   2.0074  2.0074 sum   4.0148
   20    C  MulP   2.0022  2.0022 sum   4.0044
     ..........
     ......

 Sum of MulP: up   =   259.00000 down          =   259.00000
              total=   518.00000 ideal(neutral)=   518.00000
<DFT>  Total Spin Moment (muB) =  0.000000000000
<DFT>  Mixing_weight= 0.300000000000
<DFT>  Uele   = -243.937971947425  dUele     =   1.174373520098
<DFT>  NormRD =    0.675551380286  Criterion =   0.000000010000

******************* MD= 1  SCF=11 *******************
<Poisson>  Poisson's equation using FFT...
<Set_Hamiltonian>  Hamiltonian matrix for VNA+dVH+Vxc...
<Band>  Solving the eigenvalue problem...
 KGrids1:  -0.43750  -0.31250  -0.18750  -0.06250   0.06250   0.18750   0.31250   0.43750 
 KGrids2:  -0.43750  -0.31250  -0.18750  -0.06250   0.06250   0.18750   0.31250   0.43750 
 KGrids3:   0.00000 
<Band_DFT>  Eigen, time=14.198945
<Band_DFT>  DM, time=0.000000
    1    C  MulP   1.9998  1.9998 sum   3.9996
    2    C  MulP   1.9998  1.9998 sum   3.9996
    3    C  MulP   1.9998  1.9998 sum   3.9997
    4    C  MulP   1.9997  1.9997 sum   3.9995
    5    C  MulP   2.0000  2.0000 sum   3.9999
    6    C  MulP   1.9998  1.9998 sum   3.9995
    7    C  MulP   1.9999  1.9999 sum   3.9999
    8    C  MulP   1.9997  1.9997 sum   3.9995
    9    C  MulP   2.0001  2.0001 sum   4.0001
   10    C  MulP   1.9997  1.9997 sum   3.9993
   11    C  MulP   1.9992  1.9992 sum   3.9985
   12    C  MulP   2.0001  2.0001 sum   4.0003
   13    C  MulP   1.9999  1.9999 sum   3.9999
   14    C  MulP   1.9999  1.9999 sum   3.9999
   15    C  MulP   2.0000  2.0000 sum   3.9999
   16    C  MulP   2.0000  2.0000 sum   3.9999
   17    C  MulP   2.0000  2.0000 sum   4.0001
   18    C  MulP   2.0002  2.0002 sum   4.0003
   19    C  MulP   2.0074  2.0074 sum   4.0148
   20    C  MulP   2.0022  2.0022 sum   4.0044
     ..........
     ......

 Sum of MulP: up   =   259.00000 down          =   259.00000
              total=   518.00000 ideal(neutral)=   518.00000
<DFT>  Total Spin Moment (muB) =  0.000000000000
<DFT>  Mixing_weight= 0.300000000000
<DFT>  Uele   = -244.818385833548  dUele     =   0.880413886122
<DFT>  NormRD =    0.469454358800  Criterion =   0.000000010000

******************* MD= 1  SCF=12 *******************
<Poisson>  Poisson's equation using FFT...
<Set_Hamiltonian>  Hamiltonian matrix for VNA+dVH+Vxc...
<Band>  Solving the eigenvalue problem...
 KGrids1:  -0.43750  -0.31250  -0.18750  -0.06250   0.06250   0.18750   0.31250   0.43750 
 KGrids2:  -0.43750  -0.31250  -0.18750  -0.06250   0.06250   0.18750   0.31250   0.43750 
 KGrids3:   0.00000 
<Band_DFT>  Eigen, time=14.183316
<Band_DFT>  DM, time=0.000001
    1    C  MulP   1.9998  1.9998 sum   3.9996
    2    C  MulP   1.9998  1.9998 sum   3.9996
    3    C  MulP   1.9998  1.9998 sum   3.9997
    4    C  MulP   1.9997  1.9997 sum   3.9995
    5    C  MulP   2.0000  2.0000 sum   3.9999
    6    C  MulP   1.9998  1.9998 sum   3.9996
    7    C  MulP   1.9999  1.9999 sum   3.9999
    8    C  MulP   1.9997  1.9997 sum   3.9995
    9    C  MulP   2.0001  2.0001 sum   4.0001
   10    C  MulP   1.9997  1.9997 sum   3.9993
   11    C  MulP   1.9992  1.9992 sum   3.9985
   12    C  MulP   2.0001  2.0001 sum   4.0003
   13    C  MulP   1.9999  1.9999 sum   3.9999
   14    C  MulP   1.9999  1.9999 sum   3.9999
   15    C  MulP   2.0000  2.0000 sum   3.9999
   16    C  MulP   2.0000  2.0000 sum   4.0000
   17    C  MulP   2.0000  2.0000 sum   4.0001
   18    C  MulP   2.0002  2.0002 sum   4.0003
   19    C  MulP   2.0074  2.0074 sum   4.0148
   20    C  MulP   2.0022  2.0022 sum   4.0044
     ..........
     ......

 Sum of MulP: up   =   259.00000 down          =   259.00000
              total=   518.00000 ideal(neutral)=   518.00000
<DFT>  Total Spin Moment (muB) =  0.000000000000
<DFT>  Mixing_weight= 0.300000000000
<DFT>  Uele   = -245.497458019919  dUele     =   0.679072186371
<DFT>  NormRD =    0.327264032566  Criterion =   0.000000010000

******************* MD= 1  SCF=13 *******************
<Poisson>  Poisson's equation using FFT...
<Set_Hamiltonian>  Hamiltonian matrix for VNA+dVH+Vxc...
<Band>  Solving the eigenvalue problem...
 KGrids1:  -0.43750  -0.31250  -0.18750  -0.06250   0.06250   0.18750   0.31250   0.43750 
 KGrids2:  -0.43750  -0.31250  -0.18750  -0.06250   0.06250   0.18750   0.31250   0.43750 
 KGrids3:   0.00000 
<Band_DFT>  Eigen, time=14.203489
<Band_DFT>  DM, time=0.000001
    1    C  MulP   1.9998  1.9998 sum   3.9996
    2    C  MulP   1.9998  1.9998 sum   3.9996
    3    C  MulP   1.9998  1.9998 sum   3.9997
    4    C  MulP   1.9997  1.9997 sum   3.9995
    5    C  MulP   2.0000  2.0000 sum   3.9999
    6    C  MulP   1.9998  1.9998 sum   3.9996
    7    C  MulP   1.9999  1.9999 sum   3.9999
    8    C  MulP   1.9997  1.9997 sum   3.9995
    9    C  MulP   2.0001  2.0001 sum   4.0001
   10    C  MulP   1.9997  1.9997 sum   3.9993
   11    C  MulP   1.9992  1.9992 sum   3.9985
   12    C  MulP   2.0001  2.0001 sum   4.0003
   13    C  MulP   1.9999  1.9999 sum   3.9999
   14    C  MulP   1.9999  1.9999 sum   3.9999
   15    C  MulP   2.0000  2.0000 sum   3.9999
   16    C  MulP   2.0000  2.0000 sum   4.0000
   17    C  MulP   2.0000  2.0000 sum   4.0001
   18    C  MulP   2.0002  2.0002 sum   4.0003
   19    C  MulP   2.0074  2.0074 sum   4.0148
   20    C  MulP   2.0022  2.0022 sum   4.0044
     ..........
     ......

 Sum of MulP: up   =   259.00000 down          =   259.00000
              total=   518.00000 ideal(neutral)=   518.00000
<DFT>  Total Spin Moment (muB) =  0.000000000000
<DFT>  Mixing_weight= 0.300000000000
<DFT>  Uele   = -246.034805020234  dUele     =   0.537347000315
<DFT>  NormRD =    0.228900140840  Criterion =   0.000000010000

******************* MD= 1  SCF=14 *******************
<Poisson>  Poisson's equation using FFT...
<Set_Hamiltonian>  Hamiltonian matrix for VNA+dVH+Vxc...
<Band>  Solving the eigenvalue problem...
 KGrids1:  -0.43750  -0.31250  -0.18750  -0.06250   0.06250   0.18750   0.31250   0.43750 
 KGrids2:  -0.43750  -0.31250  -0.18750  -0.06250   0.06250   0.18750   0.31250   0.43750 
 KGrids3:   0.00000 
<Band_DFT>  Eigen, time=14.181979
<Band_DFT>  DM, time=0.000000
    1    C  MulP   1.9998  1.9998 sum   3.9996
    2    C  MulP   1.9998  1.9998 sum   3.9996
    3    C  MulP   1.9998  1.9998 sum   3.9997
    4    C  MulP   1.9997  1.9997 sum   3.9995
    5    C  MulP   2.0000  2.0000 sum   3.9999
    6    C  MulP   1.9998  1.9998 sum   3.9996
    7    C  MulP   1.9999  1.9999 sum   3.9999
    8    C  MulP   1.9997  1.9997 sum   3.9995
    9    C  MulP   2.0001  2.0001 sum   4.0001
   10    C  MulP   1.9997  1.9997 sum   3.9993
   11    C  MulP   1.9992  1.9992 sum   3.9985
   12    C  MulP   2.0001  2.0001 sum   4.0003
   13    C  MulP   1.9999  1.9999 sum   3.9999
   14    C  MulP   1.9999  1.9999 sum   3.9999
   15    C  MulP   2.0000  2.0000 sum   3.9999
   16    C  MulP   2.0000  2.0000 sum   4.0000
   17    C  MulP   2.0000  2.0000 sum   4.0001
   18    C  MulP   2.0002  2.0002 sum   4.0003
   19    C  MulP   2.0074  2.0074 sum   4.0148
   20    C  MulP   2.0022  2.0022 sum   4.0044
     ..........
     ......

 Sum of MulP: up   =   259.00000 down          =   259.00000
              total=   518.00000 ideal(neutral)=   518.00000
<DFT>  Total Spin Moment (muB) =  0.000000000000
<DFT>  Mixing_weight= 0.300000000000
<DFT>  Uele   = -246.469505943423  dUele     =   0.434700923189
<DFT>  NormRD =    0.160776075806  Criterion =   0.000000010000

******************* MD= 1  SCF=15 *******************
<Poisson>  Poisson's equation using FFT...
<Set_Hamiltonian>  Hamiltonian matrix for VNA+dVH+Vxc...
<Band>  Solving the eigenvalue problem...
 KGrids1:  -0.43750  -0.31250  -0.18750  -0.06250   0.06250   0.18750   0.31250   0.43750 
 KGrids2:  -0.43750  -0.31250  -0.18750  -0.06250   0.06250   0.18750   0.31250   0.43750 
 KGrids3:   0.00000 
<Band_DFT>  Eigen, time=14.189917
<Band_DFT>  DM, time=0.000000
    1    C  MulP   1.9998  1.9998 sum   3.9996
    2    C  MulP   1.9998  1.9998 sum   3.9996
    3    C  MulP   1.9998  1.9998 sum   3.9997
    4    C  MulP   1.9997  1.9997 sum   3.9995
    5    C  MulP   2.0000  2.0000 sum   3.9999
    6    C  MulP   1.9998  1.9998 sum   3.9996
    7    C  MulP   1.9999  1.9999 sum   3.9999
    8    C  MulP   1.9997  1.9997 sum   3.9995
    9    C  MulP   2.0001  2.0001 sum   4.0001
   10    C  MulP   1.9997  1.9997 sum   3.9993
   11    C  MulP   1.9992  1.9992 sum   3.9985
   12    C  MulP   2.0001  2.0001 sum   4.0003
   13    C  MulP   1.9999  1.9999 sum   3.9999
   14    C  MulP   1.9999  1.9999 sum   3.9999
   15    C  MulP   2.0000  2.0000 sum   3.9999
   16    C  MulP   2.0000  2.0000 sum   4.0000
   17    C  MulP   2.0000  2.0000 sum   4.0001
   18    C  MulP   2.0002  2.0002 sum   4.0003
   19    C  MulP   2.0074  2.0074 sum   4.0148
   20    C  MulP   2.0022  2.0022 sum   4.0044
     ..........
     ......

 Sum of MulP: up   =   259.00000 down          =   259.00000
              total=   518.00000 ideal(neutral)=   518.00000
<DFT>  Total Spin Moment (muB) =  0.000000000000
<DFT>  Mixing_weight= 0.030000000000
<DFT>  Uele   = -246.827933856617  dUele     =   0.358427913194
<DFT>  NormRD =    0.114625756421  Criterion =   0.000000010000

******************* MD= 1  SCF=16 *******************
<Poisson>  Poisson's equation using FFT...
<Set_Hamiltonian>  Hamiltonian matrix for VNA+dVH+Vxc...
<Band>  Solving the eigenvalue problem...
 KGrids1:  -0.43750  -0.31250  -0.18750  -0.06250   0.06250   0.18750   0.31250   0.43750 
 KGrids2:  -0.43750  -0.31250  -0.18750  -0.06250   0.06250   0.18750   0.31250   0.43750 
 KGrids3:   0.00000 
<Band_DFT>  Eigen, time=14.170513
<Band_DFT>  DM, time=0.000000
    1    C  MulP   1.9998  1.9998 sum   3.9996
    2    C  MulP   1.9998  1.9998 sum   3.9996
    3    C  MulP   1.9998  1.9998 sum   3.9997
    4    C  MulP   1.9997  1.9997 sum   3.9995
    5    C  MulP   2.0000  2.0000 sum   3.9999
    6    C  MulP   1.9998  1.9998 sum   3.9996
    7    C  MulP   1.9999  1.9999 sum   3.9999
    8    C  MulP   1.9997  1.9997 sum   3.9995
    9    C  MulP   2.0001  2.0001 sum   4.0001
   10    C  MulP   1.9997  1.9997 sum   3.9993
   11    C  MulP   1.9992  1.9992 sum   3.9985
   12    C  MulP   2.0001  2.0001 sum   4.0003
   13    C  MulP   1.9999  1.9999 sum   3.9999
   14    C  MulP   1.9999  1.9999 sum   3.9999
   15    C  MulP   2.0000  2.0000 sum   3.9999
   16    C  MulP   2.0000  2.0000 sum   4.0000
   17    C  MulP   2.0000  2.0000 sum   4.0001
   18    C  MulP   2.0002  2.0002 sum   4.0003
   19    C  MulP   2.0074  2.0074 sum   4.0149
   20    C  MulP   2.0022  2.0022 sum   4.0044
     ..........
     ......

 Sum of MulP: up   =   259.00000 down          =   259.00000
              total=   518.00000 ideal(neutral)=   518.00000
<DFT>  Total Spin Moment (muB) =  0.000000000000
<DFT>  Mixing_weight= 0.030000000000
<DFT>  Uele   = -248.883566004127  dUele     =   2.055632147509
<DFT>  NormRD =    0.011699329806  Criterion =   0.000000010000

******************* MD= 1  SCF=17 *******************
<Poisson>  Poisson's equation using FFT...
<Set_Hamiltonian>  Hamiltonian matrix for VNA+dVH+Vxc...
<Band>  Solving the eigenvalue problem...
 KGrids1:  -0.43750  -0.31250  -0.18750  -0.06250   0.06250   0.18750   0.31250   0.43750 
 KGrids2:  -0.43750  -0.31250  -0.18750  -0.06250   0.06250   0.18750   0.31250   0.43750 
 KGrids3:   0.00000 
<Band_DFT>  Eigen, time=14.185830
<Band_DFT>  DM, time=0.000000
    1    C  MulP   1.9998  1.9998 sum   3.9996
    2    C  MulP   1.9998  1.9998 sum   3.9996
    3    C  MulP   1.9998  1.9998 sum   3.9997
    4    C  MulP   1.9998  1.9998 sum   3.9995
    5    C  MulP   2.0000  2.0000 sum   3.9999
    6    C  MulP   1.9998  1.9998 sum   3.9995
    7    C  MulP   1.9999  1.9999 sum   3.9999
    8    C  MulP   1.9997  1.9997 sum   3.9994
    9    C  MulP   2.0001  2.0001 sum   4.0001
   10    C  MulP   1.9997  1.9997 sum   3.9993
   11    C  MulP   1.9992  1.9992 sum   3.9984
   12    C  MulP   2.0002  2.0002 sum   4.0003
   13    C  MulP   1.9999  1.9999 sum   3.9999
   14    C  MulP   1.9999  1.9999 sum   3.9999
   15    C  MulP   2.0000  2.0000 sum   3.9999
   16    C  MulP   2.0000  2.0000 sum   3.9999
   17    C  MulP   2.0000  2.0000 sum   4.0001
   18    C  MulP   2.0001  2.0001 sum   4.0003
   19    C  MulP   2.0074  2.0074 sum   4.0148
   20    C  MulP   2.0022  2.0022 sum   4.0043
     ..........
     ......

 Sum of MulP: up   =   259.00000 down          =   259.00000
              total=   518.00000 ideal(neutral)=   518.00000
<DFT>  Total Spin Moment (muB) =  0.000000000000
<DFT>  Mixing_weight= 0.030000000000
<DFT>  Uele   = -249.066472666908  dUele     =   0.182906662781
<DFT>  NormRD =    0.006160921383  Criterion =   0.000000010000

******************* MD= 1  SCF=18 *******************
<Poisson>  Poisson's equation using FFT...
<Set_Hamiltonian>  Hamiltonian matrix for VNA+dVH+Vxc...
<Band>  Solving the eigenvalue problem...
 KGrids1:  -0.43750  -0.31250  -0.18750  -0.06250   0.06250   0.18750   0.31250   0.43750 
 KGrids2:  -0.43750  -0.31250  -0.18750  -0.06250   0.06250   0.18750   0.31250   0.43750 
 KGrids3:   0.00000 
<Band_DFT>  Eigen, time=14.160073
<Band_DFT>  DM, time=0.000001
    1    C  MulP   1.9998  1.9998 sum   3.9996
    2    C  MulP   1.9998  1.9998 sum   3.9996
    3    C  MulP   1.9999  1.9999 sum   3.9997
    4    C  MulP   1.9997  1.9997 sum   3.9995
    5    C  MulP   2.0000  2.0000 sum   3.9999
    6    C  MulP   1.9998  1.9998 sum   3.9996
    7    C  MulP   2.0000  2.0000 sum   3.9999
    8    C  MulP   1.9997  1.9997 sum   3.9995
    9    C  MulP   2.0001  2.0001 sum   4.0002
   10    C  MulP   1.9997  1.9997 sum   3.9993
   11    C  MulP   1.9993  1.9993 sum   3.9985
   12    C  MulP   2.0001  2.0001 sum   4.0002
   13    C  MulP   1.9999  1.9999 sum   3.9999
   14    C  MulP   1.9999  1.9999 sum   3.9999
   15    C  MulP   2.0000  2.0000 sum   4.0000
   16    C  MulP   2.0000  2.0000 sum   4.0000
   17    C  MulP   2.0000  2.0000 sum   4.0001
   18    C  MulP   2.0002  2.0002 sum   4.0003
   19    C  MulP   2.0075  2.0075 sum   4.0149
   20    C  MulP   2.0023  2.0023 sum   4.0045
     ..........
     ......

 Sum of MulP: up   =   259.00000 down          =   259.00000
              total=   518.00000 ideal(neutral)=   518.00000
<DFT>  Total Spin Moment (muB) =  0.000000000000
<DFT>  Mixing_weight= 0.030000000000
<DFT>  Uele   = -249.137244619382  dUele     =   0.070771952475
<DFT>  NormRD =    0.006884270931  Criterion =   0.000000010000

******************* MD= 1  SCF=19 *******************
<Poisson>  Poisson's equation using FFT...
<Set_Hamiltonian>  Hamiltonian matrix for VNA+dVH+Vxc...
<Band>  Solving the eigenvalue problem...
 KGrids1:  -0.43750  -0.31250  -0.18750  -0.06250   0.06250   0.18750   0.31250   0.43750 
 KGrids2:  -0.43750  -0.31250  -0.18750  -0.06250   0.06250   0.18750   0.31250   0.43750 
 KGrids3:   0.00000 
<Band_DFT>  Eigen, time=14.240255
<Band_DFT>  DM, time=0.000000
    1    C  MulP   1.9998  1.9998 sum   3.9996
    2    C  MulP   1.9998  1.9998 sum   3.9996
    3    C  MulP   1.9998  1.9998 sum   3.9996
    4    C  MulP   1.9997  1.9997 sum   3.9995
    5    C  MulP   2.0000  2.0000 sum   3.9999
    6    C  MulP   1.9998  1.9998 sum   3.9995
    7    C  MulP   1.9999  1.9999 sum   3.9999
    8    C  MulP   1.9997  1.9997 sum   3.9994
    9    C  MulP   2.0001  2.0001 sum   4.0001
   10    C  MulP   1.9997  1.9997 sum   3.9993
   11    C  MulP   1.9992  1.9992 sum   3.9984
   12    C  MulP   2.0001  2.0001 sum   4.0003
   13    C  MulP   1.9999  1.9999 sum   3.9999
   14    C  MulP   1.9999  1.9999 sum   3.9999
   15    C  MulP   2.0000  2.0000 sum   3.9999
   16    C  MulP   2.0000  2.0000 sum   3.9999
   17    C  MulP   2.0000  2.0000 sum   4.0001
   18    C  MulP   2.0001  2.0001 sum   4.0003
   19    C  MulP   2.0074  2.0074 sum   4.0149
   20    C  MulP   2.0022  2.0022 sum   4.0044
     ..........
     ......

 Sum of MulP: up   =   259.00000 down          =   259.00000
              total=   518.00000 ideal(neutral)=   518.00000
<DFT>  Total Spin Moment (muB) =  0.000000000000
<DFT>  Mixing_weight= 0.030000000000
<DFT>  Uele   = -249.191834913111  dUele     =   0.054590293729
<DFT>  NormRD =    0.001684589785  Criterion =   0.000000010000

******************* MD= 1  SCF=20 *******************
<Poisson>  Poisson's equation using FFT...
<Set_Hamiltonian>  Hamiltonian matrix for VNA+dVH+Vxc...
<Band>  Solving the eigenvalue problem...
 KGrids1:  -0.43750  -0.31250  -0.18750  -0.06250   0.06250   0.18750   0.31250   0.43750 
 KGrids2:  -0.43750  -0.31250  -0.18750  -0.06250   0.06250   0.18750   0.31250   0.43750 
 KGrids3:   0.00000 
<Band_DFT>  Eigen, time=14.180268
<Band_DFT>  DM, time=0.000001
    1    C  MulP   1.9998  1.9998 sum   3.9996
    2    C  MulP   1.9998  1.9998 sum   3.9996
    3    C  MulP   1.9998  1.9998 sum   3.9997
    4    C  MulP   1.9998  1.9998 sum   3.9995
    5    C  MulP   2.0000  2.0000 sum   3.9999
    6    C  MulP   1.9998  1.9998 sum   3.9996
    7    C  MulP   1.9999  1.9999 sum   3.9999
    8    C  MulP   1.9997  1.9997 sum   3.9995
    9    C  MulP   2.0001  2.0001 sum   4.0002
   10    C  MulP   1.9997  1.9997 sum   3.9993
   11    C  MulP   1.9992  1.9992 sum   3.9985
   12    C  MulP   2.0001  2.0001 sum   4.0003
   13    C  MulP   1.9999  1.9999 sum   3.9999
   14    C  MulP   1.9999  1.9999 sum   3.9999
   15    C  MulP   2.0000  2.0000 sum   4.0000
   16    C  MulP   2.0000  2.0000 sum   4.0000
   17    C  MulP   2.0000  2.0000 sum   4.0001
   18    C  MulP   2.0002  2.0002 sum   4.0003
   19    C  MulP   2.0074  2.0074 sum   4.0148
   20    C  MulP   2.0022  2.0022 sum   4.0044
     ..........
     ......

 Sum of MulP: up   =   259.00000 down          =   259.00000
              total=   518.00000 ideal(neutral)=   518.00000
<DFT>  Total Spin Moment (muB) =  0.000000000000
<DFT>  Mixing_weight= 0.030000000000
<DFT>  Uele   = -249.202687390031  dUele     =   0.010852476920
<DFT>  NormRD =    0.000874207226  Criterion =   0.000000010000

******************* MD= 1  SCF=21 *******************
<Poisson>  Poisson's equation using FFT...
<Set_Hamiltonian>  Hamiltonian matrix for VNA+dVH+Vxc...
<Band>  Solving the eigenvalue problem...
 KGrids1:  -0.43750  -0.31250  -0.18750  -0.06250   0.06250   0.18750   0.31250   0.43750 
 KGrids2:  -0.43750  -0.31250  -0.18750  -0.06250   0.06250   0.18750   0.31250   0.43750 
 KGrids3:   0.00000 
<Band_DFT>  Eigen, time=14.186226
<Band_DFT>  DM, time=0.000000
    1    C  MulP   1.9998  1.9998 sum   3.9996
    2    C  MulP   1.9998  1.9998 sum   3.9996
    3    C  MulP   1.9998  1.9998 sum   3.9997
    4    C  MulP   1.9997  1.9997 sum   3.9995
    5    C  MulP   2.0000  2.0000 sum   3.9999
    6    C  MulP   1.9998  1.9998 sum   3.9995
    7    C  MulP   1.9999  1.9999 sum   3.9999
    8    C  MulP   1.9997  1.9997 sum   3.9995
    9    C  MulP   2.0001  2.0001 sum   4.0001
   10    C  MulP   1.9997  1.9997 sum   3.9993
   11    C  MulP   1.9992  1.9992 sum   3.9985
   12    C  MulP   2.0001  2.0001 sum   4.0003
   13    C  MulP   1.9999  1.9999 sum   3.9999
   14    C  MulP   1.9999  1.9999 sum   3.9999
   15    C  MulP   2.0000  2.0000 sum   3.9999
   16    C  MulP   2.0000  2.0000 sum   4.0000
   17    C  MulP   2.0000  2.0000 sum   4.0001
   18    C  MulP   2.0002  2.0002 sum   4.0003
   19    C  MulP   2.0074  2.0074 sum   4.0149
   20    C  MulP   2.0022  2.0022 sum   4.0045
     ..........
     ......

 Sum of MulP: up   =   259.00000 down          =   259.00000
              total=   518.00000 ideal(neutral)=   518.00000
<DFT>  Total Spin Moment (muB) =  0.000000000000
<DFT>  Mixing_weight= 0.030000000000
<DFT>  Uele   = -249.219606626492  dUele     =   0.016919236461
<DFT>  NormRD =    0.000461884234  Criterion =   0.000000010000

******************* MD= 1  SCF=22 *******************
<Poisson>  Poisson's equation using FFT...
<Set_Hamiltonian>  Hamiltonian matrix for VNA+dVH+Vxc...
<Band>  Solving the eigenvalue problem...
 KGrids1:  -0.43750  -0.31250  -0.18750  -0.06250   0.06250   0.18750   0.31250   0.43750 
 KGrids2:  -0.43750  -0.31250  -0.18750  -0.06250   0.06250   0.18750   0.31250   0.43750 
 KGrids3:   0.00000 
<Band_DFT>  Eigen, time=14.164359
<Band_DFT>  DM, time=0.000001
    1    C  MulP   1.9998  1.9998 sum   3.9996
    2    C  MulP   1.9998  1.9998 sum   3.9996
    3    C  MulP   1.9998  1.9998 sum   3.9997
    4    C  MulP   1.9998  1.9998 sum   3.9995
    5    C  MulP   2.0000  2.0000 sum   3.9999
    6    C  MulP   1.9998  1.9998 sum   3.9996
    7    C  MulP   1.9999  1.9999 sum   3.9999
    8    C  MulP   1.9997  1.9997 sum   3.9995
    9    C  MulP   2.0001  2.0001 sum   4.0001
   10    C  MulP   1.9997  1.9997 sum   3.9993
   11    C  MulP   1.9992  1.9992 sum   3.9984
   12    C  MulP   2.0001  2.0001 sum   4.0003
   13    C  MulP   1.9999  1.9999 sum   3.9999
   14    C  MulP   1.9999  1.9999 sum   3.9999
   15    C  MulP   2.0000  2.0000 sum   3.9999
   16    C  MulP   2.0000  2.0000 sum   4.0000
   17    C  MulP   2.0000  2.0000 sum   4.0001
   18    C  MulP   2.0001  2.0001 sum   4.0003
   19    C  MulP   2.0074  2.0074 sum   4.0148
   20    C  MulP   2.0022  2.0022 sum   4.0044
     ..........
     ......

 Sum of MulP: up   =   259.00000 down          =   259.00000
              total=   518.00000 ideal(neutral)=   518.00000
<DFT>  Total Spin Moment (muB) =  0.000000000000
<DFT>  Mixing_weight= 0.030000000000
<DFT>  Uele   = -249.226530430227  dUele     =   0.006923803735
<DFT>  NormRD =    0.000179129729  Criterion =   0.000000010000

******************* MD= 1  SCF=23 *******************
<Poisson>  Poisson's equation using FFT...
<Set_Hamiltonian>  Hamiltonian matrix for VNA+dVH+Vxc...
<Band>  Solving the eigenvalue problem...
 KGrids1:  -0.43750  -0.31250  -0.18750  -0.06250   0.06250   0.18750   0.31250   0.43750 
 KGrids2:  -0.43750  -0.31250  -0.18750  -0.06250   0.06250   0.18750   0.31250   0.43750 
 KGrids3:   0.00000 
<Band_DFT>  Eigen, time=14.195444
<Band_DFT>  DM, time=0.000000
    1    C  MulP   1.9998  1.9998 sum   3.9996
    2    C  MulP   1.9998  1.9998 sum   3.9996
    3    C  MulP   1.9998  1.9998 sum   3.9997
    4    C  MulP   1.9997  1.9997 sum   3.9995
    5    C  MulP   2.0000  2.0000 sum   3.9999
    6    C  MulP   1.9998  1.9998 sum   3.9996
    7    C  MulP   1.9999  1.9999 sum   3.9999
    8    C  MulP   1.9997  1.9997 sum   3.9995
    9    C  MulP   2.0001  2.0001 sum   4.0001
   10    C  MulP   1.9997  1.9997 sum   3.9993
   11    C  MulP   1.9992  1.9992 sum   3.9985
   12    C  MulP   2.0001  2.0001 sum   4.0003
   13    C  MulP   1.9999  1.9999 sum   3.9999
   14    C  MulP   1.9999  1.9999 sum   3.9999
   15    C  MulP   2.0000  2.0000 sum   3.9999
   16    C  MulP   2.0000  2.0000 sum   4.0000
   17    C  MulP   2.0000  2.0000 sum   4.0001
   18    C  MulP   2.0002  2.0002 sum   4.0003
   19    C  MulP   2.0074  2.0074 sum   4.0148
   20    C  MulP   2.0022  2.0022 sum   4.0044
     ..........
     ......

 Sum of MulP: up   =   259.00000 down          =   259.00000
              total=   518.00000 ideal(neutral)=   518.00000
<DFT>  Total Spin Moment (muB) =  0.000000000000
<DFT>  Mixing_weight= 0.030000000000
<DFT>  Uele   = -249.228624342923  dUele     =   0.002093912695
<DFT>  NormRD =    0.000069661199  Criterion =   0.000000010000

******************* MD= 1  SCF=24 *******************
<Poisson>  Poisson's equation using FFT...
<Set_Hamiltonian>  Hamiltonian matrix for VNA+dVH+Vxc...
<Band>  Solving the eigenvalue problem...
 KGrids1:  -0.43750  -0.31250  -0.18750  -0.06250   0.06250   0.18750   0.31250   0.43750 
 KGrids2:  -0.43750  -0.31250  -0.18750  -0.06250   0.06250   0.18750   0.31250   0.43750 
 KGrids3:   0.00000 
<Band_DFT>  Eigen, time=14.167647
<Band_DFT>  DM, time=0.000001
    1    C  MulP   1.9998  1.9998 sum   3.9996
    2    C  MulP   1.9998  1.9998 sum   3.9996
    3    C  MulP   1.9998  1.9998 sum   3.9997
    4    C  MulP   1.9997  1.9997 sum   3.9995
    5    C  MulP   2.0000  2.0000 sum   3.9999
    6    C  MulP   1.9998  1.9998 sum   3.9996
    7    C  MulP   1.9999  1.9999 sum   3.9999
    8    C  MulP   1.9997  1.9997 sum   3.9995
    9    C  MulP   2.0001  2.0001 sum   4.0001
   10    C  MulP   1.9997  1.9997 sum   3.9993
   11    C  MulP   1.9992  1.9992 sum   3.9984
   12    C  MulP   2.0001  2.0001 sum   4.0003
   13    C  MulP   1.9999  1.9999 sum   3.9999
   14    C  MulP   1.9999  1.9999 sum   3.9999
   15    C  MulP   2.0000  2.0000 sum   3.9999
   16    C  MulP   2.0000  2.0000 sum   4.0000
   17    C  MulP   2.0000  2.0000 sum   4.0001
   18    C  MulP   2.0002  2.0002 sum   4.0003
   19    C  MulP   2.0074  2.0074 sum   4.0148
   20    C  MulP   2.0022  2.0022 sum   4.0044
     ..........
     ......

 Sum of MulP: up   =   259.00000 down          =   259.00000
              total=   518.00000 ideal(neutral)=   518.00000
<DFT>  Total Spin Moment (muB) =  0.000000000000
<DFT>  Mixing_weight= 0.030000000000
<DFT>  Uele   = -249.230306827626  dUele     =   0.001682484704
<DFT>  NormRD =    0.000043151136  Criterion =   0.000000010000

******************* MD= 1  SCF=25 *******************
<Poisson>  Poisson's equation using FFT...
<Set_Hamiltonian>  Hamiltonian matrix for VNA+dVH+Vxc...
<Band>  Solving the eigenvalue problem...
 KGrids1:  -0.43750  -0.31250  -0.18750  -0.06250   0.06250   0.18750   0.31250   0.43750 
 KGrids2:  -0.43750  -0.31250  -0.18750  -0.06250   0.06250   0.18750   0.31250   0.43750 
 KGrids3:   0.00000 
<Band_DFT>  Eigen, time=14.196258
<Band_DFT>  DM, time=0.000000
    1    C  MulP   1.9998  1.9998 sum   3.9996
    2    C  MulP   1.9998  1.9998 sum   3.9996
    3    C  MulP   1.9998  1.9998 sum   3.9997
    4    C  MulP   1.9997  1.9997 sum   3.9995
    5    C  MulP   2.0000  2.0000 sum   3.9999
    6    C  MulP   1.9998  1.9998 sum   3.9996
    7    C  MulP   1.9999  1.9999 sum   3.9999
    8    C  MulP   1.9997  1.9997 sum   3.9995
    9    C  MulP   2.0001  2.0001 sum   4.0001
   10    C  MulP   1.9997  1.9997 sum   3.9993
   11    C  MulP   1.9992  1.9992 sum   3.9984
   12    C  MulP   2.0001  2.0001 sum   4.0003
   13    C  MulP   1.9999  1.9999 sum   3.9999
   14    C  MulP   1.9999  1.9999 sum   3.9999
   15    C  MulP   2.0000  2.0000 sum   3.9999
   16    C  MulP   2.0000  2.0000 sum   4.0000
   17    C  MulP   2.0000  2.0000 sum   4.0001
   18    C  MulP   2.0002  2.0002 sum   4.0003
   19    C  MulP   2.0074  2.0074 sum   4.0148
   20    C  MulP   2.0022  2.0022 sum   4.0044
     ..........
     ......

 Sum of MulP: up   =   259.00000 down          =   259.00000
              total=   518.00000 ideal(neutral)=   518.00000
<DFT>  Total Spin Moment (muB) =  0.000000000000
<DFT>  Mixing_weight= 0.030000000000
<DFT>  Uele   = -249.231035174283  dUele     =   0.000728346656
<DFT>  NormRD =    0.000017060780  Criterion =   0.000000010000

******************* MD= 1  SCF=26 *******************
<Poisson>  Poisson's equation using FFT...
<Set_Hamiltonian>  Hamiltonian matrix for VNA+dVH+Vxc...
<Band>  Solving the eigenvalue problem...
 KGrids1:  -0.43750  -0.31250  -0.18750  -0.06250   0.06250   0.18750   0.31250   0.43750 
 KGrids2:  -0.43750  -0.31250  -0.18750  -0.06250   0.06250   0.18750   0.31250   0.43750 
 KGrids3:   0.00000 
<Band_DFT>  Eigen, time=14.188081
<Band_DFT>  DM, time=0.000000
    1    C  MulP   1.9998  1.9998 sum   3.9996
    2    C  MulP   1.9998  1.9998 sum   3.9996
    3    C  MulP   1.9998  1.9998 sum   3.9997
    4    C  MulP   1.9997  1.9997 sum   3.9995
    5    C  MulP   2.0000  2.0000 sum   3.9999
    6    C  MulP   1.9998  1.9998 sum   3.9996
    7    C  MulP   1.9999  1.9999 sum   3.9999
    8    C  MulP   1.9997  1.9997 sum   3.9995
    9    C  MulP   2.0001  2.0001 sum   4.0001
   10    C  MulP   1.9997  1.9997 sum   3.9993
   11    C  MulP   1.9992  1.9992 sum   3.9985
   12    C  MulP   2.0001  2.0001 sum   4.0003
   13    C  MulP   1.9999  1.9999 sum   3.9999
   14    C  MulP   1.9999  1.9999 sum   3.9999
   15    C  MulP   2.0000  2.0000 sum   3.9999
   16    C  MulP   2.0000  2.0000 sum   4.0000
   17    C  MulP   2.0000  2.0000 sum   4.0001
   18    C  MulP   2.0002  2.0002 sum   4.0003
   19    C  MulP   2.0074  2.0074 sum   4.0148
   20    C  MulP   2.0022  2.0022 sum   4.0044
     ..........
     ......

 Sum of MulP: up   =   259.00000 down          =   259.00000
              total=   518.00000 ideal(neutral)=   518.00000
<DFT>  Total Spin Moment (muB) =  0.000000000000
<DFT>  Mixing_weight= 0.030000000000
<DFT>  Uele   = -249.231404960645  dUele     =   0.000369786362
<DFT>  NormRD =    0.000011545662  Criterion =   0.000000010000

******************* MD= 1  SCF=27 *******************
<Poisson>  Poisson's equation using FFT...
<Set_Hamiltonian>  Hamiltonian matrix for VNA+dVH+Vxc...
<Band>  Solving the eigenvalue problem...
 KGrids1:  -0.43750  -0.31250  -0.18750  -0.06250   0.06250   0.18750   0.31250   0.43750 
 KGrids2:  -0.43750  -0.31250  -0.18750  -0.06250   0.06250   0.18750   0.31250   0.43750 
 KGrids3:   0.00000 
<Band_DFT>  Eigen, time=14.199495
<Band_DFT>  DM, time=0.000000
    1    C  MulP   1.9998  1.9998 sum   3.9996
    2    C  MulP   1.9998  1.9998 sum   3.9996
    3    C  MulP   1.9998  1.9998 sum   3.9997
    4    C  MulP   1.9997  1.9997 sum   3.9995
    5    C  MulP   2.0000  2.0000 sum   3.9999
    6    C  MulP   1.9998  1.9998 sum   3.9996
    7    C  MulP   1.9999  1.9999 sum   3.9999
    8    C  MulP   1.9997  1.9997 sum   3.9995
    9    C  MulP   2.0001  2.0001 sum   4.0001
   10    C  MulP   1.9997  1.9997 sum   3.9993
   11    C  MulP   1.9992  1.9992 sum   3.9985
   12    C  MulP   2.0001  2.0001 sum   4.0003
   13    C  MulP   1.9999  1.9999 sum   3.9999
   14    C  MulP   1.9999  1.9999 sum   3.9999
   15    C  MulP   2.0000  2.0000 sum   3.9999
   16    C  MulP   2.0000  2.0000 sum   4.0000
   17    C  MulP   2.0000  2.0000 sum   4.0001
   18    C  MulP   2.0002  2.0002 sum   4.0003
   19    C  MulP   2.0074  2.0074 sum   4.0148
   20    C  MulP   2.0022  2.0022 sum   4.0044
     ..........
     ......

 Sum of MulP: up   =   259.00000 down          =   259.00000
              total=   518.00000 ideal(neutral)=   518.00000
<DFT>  Total Spin Moment (muB) =  0.000000000000
<DFT>  Mixing_weight= 0.030000000000
<DFT>  Uele   = -249.231607713833  dUele     =   0.000202753188
<DFT>  NormRD =    0.000005329056  Criterion =   0.000000010000

******************* MD= 1  SCF=28 *******************
<Poisson>  Poisson's equation using FFT...
<Set_Hamiltonian>  Hamiltonian matrix for VNA+dVH+Vxc...
<Band>  Solving the eigenvalue problem...
 KGrids1:  -0.43750  -0.31250  -0.18750  -0.06250   0.06250   0.18750   0.31250   0.43750 
 KGrids2:  -0.43750  -0.31250  -0.18750  -0.06250   0.06250   0.18750   0.31250   0.43750 
 KGrids3:   0.00000 
<Band_DFT>  Eigen, time=14.200372
<Band_DFT>  DM, time=0.000000
    1    C  MulP   1.9998  1.9998 sum   3.9996
    2    C  MulP   1.9998  1.9998 sum   3.9996
    3    C  MulP   1.9998  1.9998 sum   3.9997
    4    C  MulP   1.9997  1.9997 sum   3.9995
    5    C  MulP   2.0000  2.0000 sum   3.9999
    6    C  MulP   1.9998  1.9998 sum   3.9996
    7    C  MulP   1.9999  1.9999 sum   3.9999
    8    C  MulP   1.9997  1.9997 sum   3.9995
    9    C  MulP   2.0001  2.0001 sum   4.0001
   10    C  MulP   1.9997  1.9997 sum   3.9993
   11    C  MulP   1.9992  1.9992 sum   3.9985
   12    C  MulP   2.0001  2.0001 sum   4.0003
   13    C  MulP   1.9999  1.9999 sum   3.9999
   14    C  MulP   1.9999  1.9999 sum   3.9999
   15    C  MulP   2.0000  2.0000 sum   3.9999
   16    C  MulP   2.0000  2.0000 sum   4.0000
   17    C  MulP   2.0000  2.0000 sum   4.0001
   18    C  MulP   2.0002  2.0002 sum   4.0003
   19    C  MulP   2.0074  2.0074 sum   4.0148
   20    C  MulP   2.0022  2.0022 sum   4.0044
     ..........
     ......

 Sum of MulP: up   =   259.00000 down          =   259.00000
              total=   518.00000 ideal(neutral)=   518.00000
<DFT>  Total Spin Moment (muB) =  0.000000000000
<DFT>  Mixing_weight= 0.030000000000
<DFT>  Uele   = -249.231718597435  dUele     =   0.000110883602
<DFT>  NormRD =    0.000003313380  Criterion =   0.000000010000

******************* MD= 1  SCF=29 *******************
<Poisson>  Poisson's equation using FFT...
<Set_Hamiltonian>  Hamiltonian matrix for VNA+dVH+Vxc...
<Band>  Solving the eigenvalue problem...
 KGrids1:  -0.43750  -0.31250  -0.18750  -0.06250   0.06250   0.18750   0.31250   0.43750 
 KGrids2:  -0.43750  -0.31250  -0.18750  -0.06250   0.06250   0.18750   0.31250   0.43750 
 KGrids3:   0.00000 
<Band_DFT>  Eigen, time=14.206148
<Band_DFT>  DM, time=0.000000
    1    C  MulP   1.9998  1.9998 sum   3.9996
    2    C  MulP   1.9998  1.9998 sum   3.9996
    3    C  MulP   1.9998  1.9998 sum   3.9997
    4    C  MulP   1.9997  1.9997 sum   3.9995
    5    C  MulP   2.0000  2.0000 sum   3.9999
    6    C  MulP   1.9998  1.9998 sum   3.9996
    7    C  MulP   1.9999  1.9999 sum   3.9999
    8    C  MulP   1.9997  1.9997 sum   3.9995
    9    C  MulP   2.0001  2.0001 sum   4.0001
   10    C  MulP   1.9997  1.9997 sum   3.9993
   11    C  MulP   1.9992  1.9992 sum   3.9985
   12    C  MulP   2.0001  2.0001 sum   4.0003
   13    C  MulP   1.9999  1.9999 sum   3.9999
   14    C  MulP   1.9999  1.9999 sum   3.9999
   15    C  MulP   2.0000  2.0000 sum   3.9999
   16    C  MulP   2.0000  2.0000 sum   4.0000
   17    C  MulP   2.0000  2.0000 sum   4.0001
   18    C  MulP   2.0002  2.0002 sum   4.0003
   19    C  MulP   2.0074  2.0074 sum   4.0148
   20    C  MulP   2.0022  2.0022 sum   4.0044
     ..........
     ......

 Sum of MulP: up   =   259.00000 down          =   259.00000
              total=   518.00000 ideal(neutral)=   518.00000
<DFT>  Total Spin Moment (muB) =  0.000000000000
<DFT>  Mixing_weight= 0.030000000000
<DFT>  Uele   = -249.231798098110  dUele     =   0.000079500675
<DFT>  NormRD =    0.000002184556  Criterion =   0.000000010000

******************* MD= 1  SCF=30 *******************
<Poisson>  Poisson's equation using FFT...
<Set_Hamiltonian>  Hamiltonian matrix for VNA+dVH+Vxc...
<Band>  Solving the eigenvalue problem...
 KGrids1:  -0.43750  -0.31250  -0.18750  -0.06250   0.06250   0.18750   0.31250   0.43750 
 KGrids2:  -0.43750  -0.31250  -0.18750  -0.06250   0.06250   0.18750   0.31250   0.43750 
 KGrids3:   0.00000 
<Band_DFT>  Eigen, time=14.179186
<Band_DFT>  DM, time=0.000000
    1    C  MulP   1.9998  1.9998 sum   3.9996
    2    C  MulP   1.9998  1.9998 sum   3.9996
    3    C  MulP   1.9998  1.9998 sum   3.9997
    4    C  MulP   1.9997  1.9997 sum   3.9995
    5    C  MulP   2.0000  2.0000 sum   3.9999
    6    C  MulP   1.9998  1.9998 sum   3.9996
    7    C  MulP   1.9999  1.9999 sum   3.9999
    8    C  MulP   1.9997  1.9997 sum   3.9995
    9    C  MulP   2.0001  2.0001 sum   4.0001
   10    C  MulP   1.9997  1.9997 sum   3.9993
   11    C  MulP   1.9992  1.9992 sum   3.9985
   12    C  MulP   2.0001  2.0001 sum   4.0003
   13    C  MulP   1.9999  1.9999 sum   3.9999
   14    C  MulP   1.9999  1.9999 sum   3.9999
   15    C  MulP   2.0000  2.0000 sum   3.9999
   16    C  MulP   2.0000  2.0000 sum   4.0000
   17    C  MulP   2.0000  2.0000 sum   4.0001
   18    C  MulP   2.0002  2.0002 sum   4.0003
   19    C  MulP   2.0074  2.0074 sum   4.0148
   20    C  MulP   2.0022  2.0022 sum   4.0044
     ..........
     ......

 Sum of MulP: up   =   259.00000 down          =   259.00000
              total=   518.00000 ideal(neutral)=   518.00000
<DFT>  Total Spin Moment (muB) =  0.000000000000
<DFT>  Mixing_weight= 0.030000000000
<DFT>  Uele   = -249.231868488702  dUele     =   0.000070390592
<DFT>  NormRD =    0.000001216815  Criterion =   0.000000010000

******************* MD= 1  SCF=31 *******************
<Poisson>  Poisson's equation using FFT...
<Set_Hamiltonian>  Hamiltonian matrix for VNA+dVH+Vxc...
<Band>  Solving the eigenvalue problem...
 KGrids1:  -0.43750  -0.31250  -0.18750  -0.06250   0.06250   0.18750   0.31250   0.43750 
 KGrids2:  -0.43750  -0.31250  -0.18750  -0.06250   0.06250   0.18750   0.31250   0.43750 
 KGrids3:   0.00000 
<Band_DFT>  Eigen, time=14.192704
<Band_DFT>  DM, time=0.000001
    1    C  MulP   1.9998  1.9998 sum   3.9996
    2    C  MulP   1.9998  1.9998 sum   3.9996
    3    C  MulP   1.9998  1.9998 sum   3.9997
    4    C  MulP   1.9997  1.9997 sum   3.9995
    5    C  MulP   2.0000  2.0000 sum   3.9999
    6    C  MulP   1.9998  1.9998 sum   3.9996
    7    C  MulP   1.9999  1.9999 sum   3.9999
    8    C  MulP   1.9997  1.9997 sum   3.9995
    9    C  MulP   2.0001  2.0001 sum   4.0001
   10    C  MulP   1.9997  1.9997 sum   3.9993
   11    C  MulP   1.9992  1.9992 sum   3.9985
   12    C  MulP   2.0001  2.0001 sum   4.0003
   13    C  MulP   1.9999  1.9999 sum   3.9999
   14    C  MulP   1.9999  1.9999 sum   3.9999
   15    C  MulP   2.0000  2.0000 sum   3.9999
   16    C  MulP   2.0000  2.0000 sum   4.0000
   17    C  MulP   2.0000  2.0000 sum   4.0001
   18    C  MulP   2.0002  2.0002 sum   4.0003
   19    C  MulP   2.0074  2.0074 sum   4.0148
   20    C  MulP   2.0022  2.0022 sum   4.0044
     ..........
     ......

 Sum of MulP: up   =   259.00000 down          =   259.00000
              total=   518.00000 ideal(neutral)=   518.00000
<DFT>  Total Spin Moment (muB) =  0.000000000000
<DFT>  Mixing_weight= 0.030000000000
<DFT>  Uele   = -249.231927484799  dUele     =   0.000058996097
<DFT>  NormRD =    0.000000417964  Criterion =   0.000000010000

******************* MD= 1  SCF=32 *******************
<Poisson>  Poisson's equation using FFT...
<Set_Hamiltonian>  Hamiltonian matrix for VNA+dVH+Vxc...
<Band>  Solving the eigenvalue problem...
 KGrids1:  -0.43750  -0.31250  -0.18750  -0.06250   0.06250   0.18750   0.31250   0.43750 
 KGrids2:  -0.43750  -0.31250  -0.18750  -0.06250   0.06250   0.18750   0.31250   0.43750 
 KGrids3:   0.00000 
<Band_DFT>  Eigen, time=14.198326
<Band_DFT>  DM, time=0.000000
    1    C  MulP   1.9998  1.9998 sum   3.9996
    2    C  MulP   1.9998  1.9998 sum   3.9996
    3    C  MulP   1.9998  1.9998 sum   3.9997
    4    C  MulP   1.9997  1.9997 sum   3.9995
    5    C  MulP   2.0000  2.0000 sum   3.9999
    6    C  MulP   1.9998  1.9998 sum   3.9996
    7    C  MulP   1.9999  1.9999 sum   3.9999
    8    C  MulP   1.9997  1.9997 sum   3.9995
    9    C  MulP   2.0001  2.0001 sum   4.0001
   10    C  MulP   1.9997  1.9997 sum   3.9993
   11    C  MulP   1.9992  1.9992 sum   3.9985
   12    C  MulP   2.0001  2.0001 sum   4.0003
   13    C  MulP   1.9999  1.9999 sum   3.9999
   14    C  MulP   1.9999  1.9999 sum   3.9999
   15    C  MulP   2.0000  2.0000 sum   3.9999
   16    C  MulP   2.0000  2.0000 sum   4.0000
   17    C  MulP   2.0000  2.0000 sum   4.0001
   18    C  MulP   2.0002  2.0002 sum   4.0003
   19    C  MulP   2.0074  2.0074 sum   4.0148
   20    C  MulP   2.0022  2.0022 sum   4.0044
     ..........
     ......

 Sum of MulP: up   =   259.00000 down          =   259.00000
              total=   518.00000 ideal(neutral)=   518.00000
<DFT>  Total Spin Moment (muB) =  0.000000000000
<DFT>  Mixing_weight= 0.030000000000
<DFT>  Uele   = -249.231956101162  dUele     =   0.000028616363
<DFT>  NormRD =    0.000000051187  Criterion =   0.000000010000

******************* MD= 1  SCF=33 *******************
<Poisson>  Poisson's equation using FFT...
<Set_Hamiltonian>  Hamiltonian matrix for VNA+dVH+Vxc...
<Band>  Solving the eigenvalue problem...
 KGrids1:  -0.43750  -0.31250  -0.18750  -0.06250   0.06250   0.18750   0.31250   0.43750 
 KGrids2:  -0.43750  -0.31250  -0.18750  -0.06250   0.06250   0.18750   0.31250   0.43750 
 KGrids3:   0.00000 
<Band_DFT>  Eigen, time=14.187105
<Band_DFT>  DM, time=0.000000
    1    C  MulP   1.9998  1.9998 sum   3.9996
    2    C  MulP   1.9998  1.9998 sum   3.9996
    3    C  MulP   1.9998  1.9998 sum   3.9997
    4    C  MulP   1.9997  1.9997 sum   3.9995
    5    C  MulP   2.0000  2.0000 sum   3.9999
    6    C  MulP   1.9998  1.9998 sum   3.9996
    7    C  MulP   1.9999  1.9999 sum   3.9999
    8    C  MulP   1.9997  1.9997 sum   3.9995
    9    C  MulP   2.0001  2.0001 sum   4.0001
   10    C  MulP   1.9997  1.9997 sum   3.9993
   11    C  MulP   1.9992  1.9992 sum   3.9985
   12    C  MulP   2.0001  2.0001 sum   4.0003
   13    C  MulP   1.9999  1.9999 sum   3.9999
   14    C  MulP   1.9999  1.9999 sum   3.9999
   15    C  MulP   2.0000  2.0000 sum   3.9999
   16    C  MulP   2.0000  2.0000 sum   4.0000
   17    C  MulP   2.0000  2.0000 sum   4.0001
   18    C  MulP   2.0002  2.0002 sum   4.0003
   19    C  MulP   2.0074  2.0074 sum   4.0148
   20    C  MulP   2.0022  2.0022 sum   4.0044
     ..........
     ......

 Sum of MulP: up   =   259.00000 down          =   259.00000
              total=   518.00000 ideal(neutral)=   518.00000
<DFT>  Total Spin Moment (muB) =  0.000000000000
<DFT>  Mixing_weight= 0.030000000000
<DFT>  Uele   = -249.231959833001  dUele     =   0.000003731839
<DFT>  NormRD =    0.000000029100  Criterion =   0.000000010000

******************* MD= 1  SCF=34 *******************
<Poisson>  Poisson's equation using FFT...
<Set_Hamiltonian>  Hamiltonian matrix for VNA+dVH+Vxc...
<Band>  Solving the eigenvalue problem...
 KGrids1:  -0.43750  -0.31250  -0.18750  -0.06250   0.06250   0.18750   0.31250   0.43750 
 KGrids2:  -0.43750  -0.31250  -0.18750  -0.06250   0.06250   0.18750   0.31250   0.43750 
 KGrids3:   0.00000 
<Band_DFT>  Eigen, time=14.196047
<Band_DFT>  DM, time=0.000000
    1    C  MulP   1.9998  1.9998 sum   3.9996
    2    C  MulP   1.9998  1.9998 sum   3.9996
    3    C  MulP   1.9998  1.9998 sum   3.9997
    4    C  MulP   1.9997  1.9997 sum   3.9995
    5    C  MulP   2.0000  2.0000 sum   3.9999
    6    C  MulP   1.9998  1.9998 sum   3.9996
    7    C  MulP   1.9999  1.9999 sum   3.9999
    8    C  MulP   1.9997  1.9997 sum   3.9995
    9    C  MulP   2.0001  2.0001 sum   4.0001
   10    C  MulP   1.9997  1.9997 sum   3.9993
   11    C  MulP   1.9992  1.9992 sum   3.9985
   12    C  MulP   2.0001  2.0001 sum   4.0003
   13    C  MulP   1.9999  1.9999 sum   3.9999
   14    C  MulP   1.9999  1.9999 sum   3.9999
   15    C  MulP   2.0000  2.0000 sum   3.9999
   16    C  MulP   2.0000  2.0000 sum   4.0000
   17    C  MulP   2.0000  2.0000 sum   4.0001
   18    C  MulP   2.0002  2.0002 sum   4.0003
   19    C  MulP   2.0074  2.0074 sum   4.0148
   20    C  MulP   2.0022  2.0022 sum   4.0044
     ..........
     ......

 Sum of MulP: up   =   259.00000 down          =   259.00000
              total=   518.00000 ideal(neutral)=   518.00000
<DFT>  Total Spin Moment (muB) =  0.000000000000
<DFT>  Mixing_weight= 0.030000000000
<DFT>  Uele   = -249.231959222045  dUele     =   0.000000610956
<DFT>  NormRD =    0.000000016952  Criterion =   0.000000010000

******************* MD= 1  SCF=35 *******************
<Poisson>  Poisson's equation using FFT...
<Set_Hamiltonian>  Hamiltonian matrix for VNA+dVH+Vxc...
<Band>  Solving the eigenvalue problem...
 KGrids1:  -0.43750  -0.31250  -0.18750  -0.06250   0.06250   0.18750   0.31250   0.43750 
 KGrids2:  -0.43750  -0.31250  -0.18750  -0.06250   0.06250   0.18750   0.31250   0.43750 
 KGrids3:   0.00000 
<Band_DFT>  Eigen, time=14.185206
<Band_DFT>  DM, time=0.000001
    1    C  MulP   1.9998  1.9998 sum   3.9996
    2    C  MulP   1.9998  1.9998 sum   3.9996
    3    C  MulP   1.9998  1.9998 sum   3.9997
    4    C  MulP   1.9997  1.9997 sum   3.9995
    5    C  MulP   2.0000  2.0000 sum   3.9999
    6    C  MulP   1.9998  1.9998 sum   3.9996
    7    C  MulP   1.9999  1.9999 sum   3.9999
    8    C  MulP   1.9997  1.9997 sum   3.9995
    9    C  MulP   2.0001  2.0001 sum   4.0001
   10    C  MulP   1.9997  1.9997 sum   3.9993
   11    C  MulP   1.9992  1.9992 sum   3.9985
   12    C  MulP   2.0001  2.0001 sum   4.0003
   13    C  MulP   1.9999  1.9999 sum   3.9999
   14    C  MulP   1.9999  1.9999 sum   3.9999
   15    C  MulP   2.0000  2.0000 sum   3.9999
   16    C  MulP   2.0000  2.0000 sum   4.0000
   17    C  MulP   2.0000  2.0000 sum   4.0001
   18    C  MulP   2.0002  2.0002 sum   4.0003
   19    C  MulP   2.0074  2.0074 sum   4.0148
   20    C  MulP   2.0022  2.0022 sum   4.0044
     ..........
     ......

 Sum of MulP: up   =   259.00000 down          =   259.00000
              total=   518.00000 ideal(neutral)=   518.00000
<DFT>  Total Spin Moment (muB) =  0.000000000000
<DFT>  Mixing_weight= 0.030000000000
<DFT>  Uele   = -249.231958645887  dUele     =   0.000000576158
<DFT>  NormRD =    0.000000007579  Criterion =   0.000000010000

******************* MD= 1  SCF=36 *******************
<Poisson>  Poisson's equation using FFT...
<Set_Hamiltonian>  Hamiltonian matrix for VNA+dVH+Vxc...
<Band>  Solving the eigenvalue problem...
 KGrids1:  -0.43750  -0.31250  -0.18750  -0.06250   0.06250   0.18750   0.31250   0.43750 
 KGrids2:  -0.43750  -0.31250  -0.18750  -0.06250   0.06250   0.18750   0.31250   0.43750 
 KGrids3:   0.00000 
<Band_DFT>  Eigen, time=14.169900
<Band_DFT>  DM, time=0.000000
    1    C  MulP   1.9998  1.9998 sum   3.9996
    2    C  MulP   1.9998  1.9998 sum   3.9996
    3    C  MulP   1.9998  1.9998 sum   3.9997
    4    C  MulP   1.9997  1.9997 sum   3.9995
    5    C  MulP   2.0000  2.0000 sum   3.9999
    6    C  MulP   1.9998  1.9998 sum   3.9996
    7    C  MulP   1.9999  1.9999 sum   3.9999
    8    C  MulP   1.9997  1.9997 sum   3.9995
    9    C  MulP   2.0001  2.0001 sum   4.0001
   10    C  MulP   1.9997  1.9997 sum   3.9993
   11    C  MulP   1.9992  1.9992 sum   3.9985
   12    C  MulP   2.0001  2.0001 sum   4.0003
   13    C  MulP   1.9999  1.9999 sum   3.9999
   14    C  MulP   1.9999  1.9999 sum   3.9999
   15    C  MulP   2.0000  2.0000 sum   3.9999
   16    C  MulP   2.0000  2.0000 sum   4.0000
   17    C  MulP   2.0000  2.0000 sum   4.0001
   18    C  MulP   2.0002  2.0002 sum   4.0003
   19    C  MulP   2.0074  2.0074 sum   4.0148
   20    C  MulP   2.0022  2.0022 sum   4.0044
     ..........
     ......

 Sum of MulP: up   =   259.00000 down          =   259.00000
              total=   518.00000 ideal(neutral)=   518.00000
<DFT>  Total Spin Moment (muB) =  0.000000000000
<DFT>  Mixing_weight= 0.030000000000
<DFT>  Uele   = -249.231958416150  dUele     =   0.000000229737
<DFT>  NormRD =    0.000000003789  Criterion =   0.000000010000

******************* MD= 1  SCF=37 *******************
<Poisson>  Poisson's equation using FFT...
<Set_Hamiltonian>  Hamiltonian matrix for VNA+dVH+Vxc...
<Band>  Solving the eigenvalue problem...
 KGrids1:  -0.43750  -0.31250  -0.18750  -0.06250   0.06250   0.18750   0.31250   0.43750 
 KGrids2:  -0.43750  -0.31250  -0.18750  -0.06250   0.06250   0.18750   0.31250   0.43750 
 KGrids3:   0.00000 
<Band_DFT>  Eigen, time=14.198043
<Band_DFT>  DM, time=0.000000
    1    C  MulP   1.9998  1.9998 sum   3.9996
    2    C  MulP   1.9998  1.9998 sum   3.9996
    3    C  MulP   1.9998  1.9998 sum   3.9997
    4    C  MulP   1.9997  1.9997 sum   3.9995
    5    C  MulP   2.0000  2.0000 sum   3.9999
    6    C  MulP   1.9998  1.9998 sum   3.9996
    7    C  MulP   1.9999  1.9999 sum   3.9999
    8    C  MulP   1.9997  1.9997 sum   3.9995
    9    C  MulP   2.0001  2.0001 sum   4.0001
   10    C  MulP   1.9997  1.9997 sum   3.9993
   11    C  MulP   1.9992  1.9992 sum   3.9985
   12    C  MulP   2.0001  2.0001 sum   4.0003
   13    C  MulP   1.9999  1.9999 sum   3.9999
   14    C  MulP   1.9999  1.9999 sum   3.9999
   15    C  MulP   2.0000  2.0000 sum   3.9999
   16    C  MulP   2.0000  2.0000 sum   4.0000
   17    C  MulP   2.0000  2.0000 sum   4.0001
   18    C  MulP   2.0002  2.0002 sum   4.0003
   19    C  MulP   2.0074  2.0074 sum   4.0148
   20    C  MulP   2.0022  2.0022 sum   4.0044
     ..........
     ......

 Sum of MulP: up   =   259.00000 down          =   259.00000
              total=   518.00000 ideal(neutral)=   518.00000
<DFT>  Total Spin Moment (muB) =  0.000000000000
<DFT>  Mixing_weight= 0.030000000000
<DFT>  Uele   = -249.231958212897  dUele     =   0.000000203253
<DFT>  NormRD =    0.000000000878  Criterion =   0.000000010000

******************* MD= 1  SCF=38 *******************
<Poisson>  Poisson's equation using FFT...
<Set_Hamiltonian>  Hamiltonian matrix for VNA+dVH+Vxc...
<Band>  Solving the eigenvalue problem...
 KGrids1:  -0.43750  -0.31250  -0.18750  -0.06250   0.06250   0.18750   0.31250   0.43750 
 KGrids2:  -0.43750  -0.31250  -0.18750  -0.06250   0.06250   0.18750   0.31250   0.43750 
 KGrids3:   0.00000 
<Band_DFT>  Eigen, time=14.202064
<Band_DFT>  DM, time=0.000001
    1    C  MulP   1.9998  1.9998 sum   3.9996
    2    C  MulP   1.9998  1.9998 sum   3.9996
    3    C  MulP   1.9998  1.9998 sum   3.9997
    4    C  MulP   1.9997  1.9997 sum   3.9995
    5    C  MulP   2.0000  2.0000 sum   3.9999
    6    C  MulP   1.9998  1.9998 sum   3.9996
    7    C  MulP   1.9999  1.9999 sum   3.9999
    8    C  MulP   1.9997  1.9997 sum   3.9995
    9    C  MulP   2.0001  2.0001 sum   4.0001
   10    C  MulP   1.9997  1.9997 sum   3.9993
   11    C  MulP   1.9992  1.9992 sum   3.9985
   12    C  MulP   2.0001  2.0001 sum   4.0003
   13    C  MulP   1.9999  1.9999 sum   3.9999
   14    C  MulP   1.9999  1.9999 sum   3.9999
   15    C  MulP   2.0000  2.0000 sum   3.9999
   16    C  MulP   2.0000  2.0000 sum   4.0000
   17    C  MulP   2.0000  2.0000 sum   4.0001
   18    C  MulP   2.0002  2.0002 sum   4.0003
   19    C  MulP   2.0074  2.0074 sum   4.0148
   20    C  MulP   2.0022  2.0022 sum   4.0044
     ..........
     ......

[...]
              total=   518.00000 ideal(neutral)=   518.00000
<DFT>  Total Spin Moment (muB) =  0.000000000000
<DFT>  Mixing_weight= 0.030000000000
<DFT>  Uele   = -249.286840715407  dUele     =   0.000000023180
<DFT>  NormRD =    0.000000047512  Criterion =   0.000000010000

******************* MD=39  SCF=15 *******************
<Poisson>  Poisson's equation using FFT...
<Set_Hamiltonian>  Hamiltonian matrix for VNA+dVH+Vxc...
<Band>  Solving the eigenvalue problem...
 KGrids1:  -0.43750  -0.31250  -0.18750  -0.06250   0.06250   0.18750   0.31250   0.43750 
 KGrids2:  -0.43750  -0.31250  -0.18750  -0.06250   0.06250   0.18750   0.31250   0.43750 
 KGrids3:   0.00000 
<Band_DFT>  Eigen, time=13.661492
<Band_DFT>  DM, time=0.000000
    1    C  MulP   1.9997  1.9997 sum   3.9995
    2    C  MulP   1.9997  1.9997 sum   3.9995
    3    C  MulP   1.9997  1.9997 sum   3.9993
    4    C  MulP   1.9997  1.9997 sum   3.9994
    5    C  MulP   2.0000  2.0000 sum   4.0000
    6    C  MulP   1.9998  1.9998 sum   3.9996
    7    C  MulP   1.9999  1.9999 sum   3.9998
    8    C  MulP   1.9997  1.9997 sum   3.9994
    9    C  MulP   2.0000  2.0000 sum   4.0000
   10    C  MulP   1.9996  1.9996 sum   3.9992
   11    C  MulP   1.9985  1.9985 sum   3.9971
   12    C  MulP   2.0003  2.0003 sum   4.0006
   13    C  MulP   1.9999  1.9999 sum   3.9999
   14    C  MulP   1.9999  1.9999 sum   3.9999
   15    C  MulP   2.0000  2.0000 sum   3.9999
   16    C  MulP   1.9999  1.9999 sum   3.9999
   17    C  MulP   2.0000  2.0000 sum   3.9999
   18    C  MulP   1.9995  1.9995 sum   3.9990
   19    C  MulP   2.0032  2.0032 sum   4.0063
   20    C  MulP   2.0012  2.0012 sum   4.0024
     ..........
     ......

 Sum of MulP: up   =   259.00000 down          =   259.00000
              total=   518.00000 ideal(neutral)=   518.00000
<DFT>  Total Spin Moment (muB) =  0.000000000000
<DFT>  Mixing_weight= 0.030000000000
<DFT>  Uele   = -249.286840708093  dUele     =   0.000000007314
<DFT>  NormRD =    0.000000009599  Criterion =   0.000000010000
<MD=39>  Force calculation
  Force calculation #1
  Force calculation #2
  Force calculation #3
  Force calculation #4
  Force calculation #5
<MD=39>  Total Energy
  Force calculation #6
  Force calculation #7

*******************************************************
                  Dipole moment (Debye)                 
*******************************************************

 Absolute D       15.21184585

                      Dx                Dy                Dz
 Total             11.37907638      -10.03544583       -1.09849992
 Core           12235.30317834    21249.56109839    26160.90094128
 Electron      -12223.92410196   -21259.59654421   -26161.99944120
 Back ground       -0.00000000       -0.00000000       -0.00000000

*******************************************************
                Total Energy (Hartree) at MD =39        
*******************************************************

  Uele  =    -249.286840708093

  Ukin  =     545.730083808089
  UH0   =   -7494.329556575344
  UH1   =       1.842298757658
  Una   =    -388.989345911520
  Unl   =     -65.637586694278
  Uxc0  =    -125.958605336416
  Uxc1  =    -125.958605336416
  Ucore =    6889.227680800886
  Uhub  =       0.000000000000
  Ucs   =       0.000000000000
  Uzs   =       0.000000000000
  Uzo   =       0.000000000000
  Uef   =       0.000000000000
  UvdW  =       0.000000000000
  Uch   =       0.000000000000
  Utot  =    -764.073636487342

  UpV   =       0.000000000000
  Enpy  =    -764.073636487342
  Note:

  Uele:   band energy
  Ukin:   kinetic energy
  UH0:    electric part of screened Coulomb energy
  UH1:    difference electron-electron Coulomb energy
  Una:    neutral atom potential energy
  Unl:    non-local potential energy
  Uxc0:   exchange-correlation energy for alpha spin
  Uxc1:   exchange-correlation energy for beta spin
  Ucore:  core-core Coulomb energy
  Uhub:   LDA+U energy
  Ucs:    constraint energy for spin orientation
  Uzs:    Zeeman term for spin magnetic moment
  Uzo:    Zeeman term for orbital magnetic moment
  Uef:    electric energy by electric field
  UvdW:   semi-empirical vdW energy 
  Uch:    penalty term to create a core hole
  UpV:    pressure times volume
  Enpy:   Enthalpy = Utot + UpV
  (see also PRB 72, 045121(2005) for the energy contributions)


*******************************************************
           Computational times (s) at MD =39            
*******************************************************

  DFT in total      =  250.50679

  Set_OLP_Kin       =    1.12360
  Set_Nonlocal      =    2.80092
  Set_ProExpn_VNA   =    4.44278
  Set_Hamiltonian   =   13.64569
  Poisson           =    0.17582
  diagonalization   =  214.98693
  Mixing_DM         =    1.53714
  Force             =    3.70591
  Total_Energy      =    1.24814
  Set_Aden_Grid     =    0.28062
  Set_Orbitals_Grid =    0.55659
  Set_Density_Grid  =    5.36339
  RestartFileDFT    =    0.30803
  Mulliken_Charge   =    0.01147
  FFT(2D)_Density   =    0.19506

The SCF was achieved at MD=  39

*******************************************************
             MD or geometry opt. at MD =39              
*******************************************************


The geometry optimization was achieved.
<RF>  |Maximum force| (Hartree/Bohr) = 0.000076249858
<RF>  Criterion       (Hartree/Bohr) = 0.000100000000

     atom=   1, XYZ(ang) Fxyz(a.u.)=  -0.0034    1.4182   10.4138     0.0000    0.0000   -0.0000
     atom=   2, XYZ(ang) Fxyz(a.u.)=  -1.2382    3.5546   10.4426     0.0000    0.0000    0.0000
     atom=   3, XYZ(ang) Fxyz(a.u.)=  -2.4705    5.6905   10.4680     0.0000    0.0000    0.0000
     atom=   4, XYZ(ang) Fxyz(a.u.)=  -3.7029    7.8287   10.4597     0.0000   -0.0000    0.0000
     atom=   5, XYZ(ang) Fxyz(a.u.)=  -4.9368    9.9655   10.4360    -0.0000    0.0000    0.0000
     atom=   6, XYZ(ang) Fxyz(a.u.)=  -6.1709   12.1027   10.4138    -0.0000    0.0000    0.0000
     atom=   7, XYZ(ang) Fxyz(a.u.)=  -7.4040   14.2404   10.3994    -0.0000    0.0000   -0.0000
     atom=   8, XYZ(ang) Fxyz(a.u.)=  -8.6380   16.3767   10.3979     0.0000    0.0000   -0.0000
     atom=   9, XYZ(ang) Fxyz(a.u.)=   2.4640    1.4209   10.4277    -0.0000    0.0000   -0.0000
     atom=  10, XYZ(ang) Fxyz(a.u.)=   1.2282    3.5522   10.4814     0.0000    0.0000   -0.0000
     atom=  11, XYZ(ang) Fxyz(a.u.)=  -0.0051    5.6902   10.5482     0.0000    0.0000   -0.0000
     atom=  12, XYZ(ang) Fxyz(a.u.)=  -1.2367    7.8273   10.5543     0.0000   -0.0000   -0.0000
     atom=  13, XYZ(ang) Fxyz(a.u.)=  -2.4686    9.9650   10.4923     0.0000    0.0000    0.0000
     atom=  14, XYZ(ang) Fxyz(a.u.)=  -3.7041   12.1030   10.4326     0.0000    0.0000   -0.0000
     atom=  15, XYZ(ang) Fxyz(a.u.)=  -4.9378   14.2404   10.3986    -0.0000   -0.0000   -0.0000
     atom=  16, XYZ(ang) Fxyz(a.u.)=  -6.1709   16.3783   10.3970    -0.0000    0.0000   -0.0000
     atom=  17, XYZ(ang) Fxyz(a.u.)=   4.9324    1.4209   10.4279    -0.0000    0.0000   -0.0000
     atom=  18, XYZ(ang) Fxyz(a.u.)=   3.6982    3.5596   10.5164     0.0000   -0.0000    0.0000
     atom=  19, XYZ(ang) Fxyz(a.u.)=   2.4559    5.6856   10.6405     0.0000    0.0000   -0.0000
     atom=  20, XYZ(ang) Fxyz(a.u.)=   1.2311    7.8173   10.7395     0.0000    0.0000   -0.0000
     atom=  21, XYZ(ang) Fxyz(a.u.)=  -0.0045    9.9679   10.6158    -0.0000    0.0000    0.0000
     atom=  22, XYZ(ang) Fxyz(a.u.)=  -1.2396   12.1038   10.4885    -0.0000    0.0000    0.0000
     atom=  23, XYZ(ang) Fxyz(a.u.)=  -2.4711   14.2396   10.4168    -0.0000    0.0000   -0.0000
     atom=  24, XYZ(ang) Fxyz(a.u.)=  -3.7038   16.3768   10.3972    -0.0000    0.0000   -0.0000
     atom=  25, XYZ(ang) Fxyz(a.u.)=   7.3999    1.4183   10.4139    -0.0000    0.0000   -0.0000
     atom=  26, XYZ(ang) Fxyz(a.u.)=   6.1683    3.5523   10.4824    -0.0000    0.0000   -0.0000
     atom=  27, XYZ(ang) Fxyz(a.u.)=   4.9405    5.6857   10.6421     0.0000    0.0000   -0.0000
     atom=  28, XYZ(ang) Fxyz(a.u.)=   3.6976    7.7776   11.0810     0.0000   -0.0000   -0.0000
     atom=  29, XYZ(ang) Fxyz(a.u.)=   2.4352    9.9914   10.8037     0.0000    0.0000   -0.0000
     atom=  30, XYZ(ang) Fxyz(a.u.)=   1.2245   12.1064   10.5590    -0.0000    0.0000   -0.0000
     atom=  31, XYZ(ang) Fxyz(a.u.)=  -0.0046   14.2401   10.4492    -0.0000    0.0000    0.0000
     atom=  32, XYZ(ang) Fxyz(a.u.)=  -1.2369   16.3760   10.4040    -0.0000    0.0000    0.0000
     atom=  33, XYZ(ang) Fxyz(a.u.)=   9.8672    1.4175   10.4026    -0.0000    0.0000   -0.0000
     atom=  34, XYZ(ang) Fxyz(a.u.)=   8.6347    3.5546   10.4438     0.0000   -0.0000    0.0000
     atom=  35, XYZ(ang) Fxyz(a.u.)=   7.4016    5.6903   10.5509     0.0000    0.0000   -0.0000
     atom=  36, XYZ(ang) Fxyz(a.u.)=   6.1652    7.8174   10.7432    -0.0000    0.0000   -0.0001
     atom=  37, XYZ(ang) Fxyz(a.u.)=   4.9611    9.9914   10.8064    -0.0000    0.0000   -0.0001
     atom=  38, XYZ(ang) Fxyz(a.u.)=   3.6982   12.1082   10.6276     0.0000    0.0000   -0.0000
     atom=  39, XYZ(ang) Fxyz(a.u.)=   2.4625   14.2383   10.4861    -0.0000    0.0000   -0.0000
     atom=  40, XYZ(ang) Fxyz(a.u.)=   1.2307   16.3742   10.4154     0.0000    0.0000   -0.0000
     atom=  41, XYZ(ang) Fxyz(a.u.)=  12.3338    1.4170   10.3985    -0.0000    0.0000   -0.0000
     atom=  42, XYZ(ang) Fxyz(a.u.)=  11.1007    3.5544   10.4137     0.0000    0.0000    0.0000
     atom=  43, XYZ(ang) Fxyz(a.u.)=   9.8670    5.6905   10.4701     0.0000    0.0000    0.0000
     atom=  44, XYZ(ang) Fxyz(a.u.)=   8.6333    7.8273   10.5580     0.0000    0.0000    0.0000
     atom=  45, XYZ(ang) Fxyz(a.u.)=   7.4010    9.9679   10.6199     0.0000   -0.0000   -0.0000
     atom=  46, XYZ(ang) Fxyz(a.u.)=   6.1720   12.1063   10.5618    -0.0000    0.0000   -0.0000
     atom=  47, XYZ(ang) Fxyz(a.u.)=   4.9342   14.2383   10.4872     0.0000    0.0000    0.0000
     atom=  48, XYZ(ang) Fxyz(a.u.)=   3.6983   16.3740   10.4247    -0.0000    0.0000   -0.0000
     atom=  49, XYZ(ang) Fxyz(a.u.)=  14.8010    1.4170   10.3985     0.0000   -0.0000   -0.0000
     atom=  50, XYZ(ang) Fxyz(a.u.)=  13.5674    3.5540   10.4026     0.0000    0.0000    0.0000
     atom=  51, XYZ(ang) Fxyz(a.u.)=  12.3340    5.6914   10.4256     0.0000    0.0000   -0.0000
     atom=  52, XYZ(ang) Fxyz(a.u.)=  11.0995    7.8287   10.4618     0.0000   -0.0000   -0.0000
     atom=  53, XYZ(ang) Fxyz(a.u.)=   9.8652    9.9650   10.4956    -0.0000    0.0000    0.0000
     atom=  54, XYZ(ang) Fxyz(a.u.)=   8.6361   12.1038   10.4916    -0.0000    0.0000   -0.0000
     atom=  55, XYZ(ang) Fxyz(a.u.)=   7.4012   14.2400   10.4514    -0.0000   -0.0000    0.0000
     atom=  56, XYZ(ang) Fxyz(a.u.)=   6.1659   16.3742   10.4164     0.0000    0.0000   -0.0000
     atom=  57, XYZ(ang) Fxyz(a.u.)=  17.2677    1.4175   10.4027     0.0000    0.0000   -0.0001
     atom=  58, XYZ(ang) Fxyz(a.u.)=  16.0342    3.5544   10.4130     0.0000    0.0000   -0.0000
     atom=  59, XYZ(ang) Fxyz(a.u.)=  14.8008    5.6915   10.4249    -0.0000    0.0000    0.0000
     atom=  60, XYZ(ang) Fxyz(a.u.)=  13.5675    7.8284   10.4322     0.0000    0.0000    0.0000
     atom=  61, XYZ(ang) Fxyz(a.u.)=  12.3334    9.9655   10.4372     0.0000    0.0000    0.0000
     atom=  62, XYZ(ang) Fxyz(a.u.)=  11.1007   12.1029   10.4346    -0.0000   -0.0000   -0.0000
     atom=  63, XYZ(ang) Fxyz(a.u.)=   9.8677   14.2395   10.4188    -0.0000   -0.0000   -0.0000
     atom=  64, XYZ(ang) Fxyz(a.u.)=   8.6335   16.3759   10.4052     0.0000   -0.0000   -0.0000
     atom=  65, XYZ(ang) Fxyz(a.u.)=   1.2306    0.7073   10.4089     0.0000   -0.0000   -0.0000
     atom=  66, XYZ(ang) Fxyz(a.u.)=  -0.0048    2.8414   10.4408    -0.0000    0.0000    0.0000
     atom=  67, XYZ(ang) Fxyz(a.u.)=  -1.2397    4.9778   10.4819    -0.0000   -0.0000    0.0000
     atom=  68, XYZ(ang) Fxyz(a.u.)=  -2.4686    7.1167   10.4902     0.0000    0.0000   -0.0000
     atom=  69, XYZ(ang) Fxyz(a.u.)=  -3.7027    9.2531   10.4603     0.0000    0.0000    0.0000
     atom=  70, XYZ(ang) Fxyz(a.u.)=  -4.9373   11.3903   10.4257     0.0000   -0.0000    0.0000
     atom=  71, XYZ(ang) Fxyz(a.u.)=  -6.1708   13.5277   10.4019     0.0000   -0.0000    0.0000
     atom=  72, XYZ(ang) Fxyz(a.u.)=  -7.4044   15.6646   10.3951    -0.0000    0.0000    0.0000
     atom=  73, XYZ(ang) Fxyz(a.u.)=   3.6983    0.7076   10.4152     0.0000   -0.0000    0.0000
     atom=  74, XYZ(ang) Fxyz(a.u.)=   2.4623    2.8431   10.4726    -0.0000    0.0000    0.0000
     atom=  75, XYZ(ang) Fxyz(a.u.)=   1.2243    4.9749   10.5462    -0.0000   -0.0000    0.0000
     atom=  76, XYZ(ang) Fxyz(a.u.)=  -0.0046    7.1134   10.6106    -0.0000   -0.0000    0.0000
     atom=  77, XYZ(ang) Fxyz(a.u.)=  -1.2366    9.2542   10.5559     0.0000    0.0000   -0.0000
     atom=  78, XYZ(ang) Fxyz(a.u.)=  -2.4703   11.3912   10.4716     0.0000   -0.0000    0.0000
     atom=  79, XYZ(ang) Fxyz(a.u.)=  -3.7040   13.5274   10.4140     0.0000   -0.0000    0.0000
     atom=  80, XYZ(ang) Fxyz(a.u.)=  -4.9372   15.6646   10.3946     0.0000    0.0000    0.0000
     atom=  81, XYZ(ang) Fxyz(a.u.)=   6.1661    0.7074   10.4087    -0.0000    0.0000   -0.0000
     atom=  82, XYZ(ang) Fxyz(a.u.)=   4.9343    2.8432   10.4731     0.0000    0.0000    0.0000
     atom=  83, XYZ(ang) Fxyz(a.u.)=   3.6983    4.9731   10.6110     0.0000    0.0000   -0.0000
     atom=  84, XYZ(ang) Fxyz(a.u.)=   2.4350    7.0888   10.7928     0.0000   -0.0000    0.0000
     atom=  85, XYZ(ang) Fxyz(a.u.)=   1.2312    9.2635   10.7438     0.0000    0.0000   -0.0000
     atom=  86, XYZ(ang) Fxyz(a.u.)=  -0.0049   11.3913   10.5570    -0.0000   -0.0000   -0.0000
     atom=  87, XYZ(ang) Fxyz(a.u.)=  -1.2379   13.5271   10.4487     0.0000    0.0000    0.0000
     atom=  88, XYZ(ang) Fxyz(a.u.)=  -2.4704   15.6641   10.4023     0.0000    0.0000   -0.0000
     atom=  89, XYZ(ang) Fxyz(a.u.)=   8.6337    0.7056   10.4028     0.0000    0.0000    0.0000
     atom=  90, XYZ(ang) Fxyz(a.u.)=   7.4014    2.8414   10.4417    -0.0000    0.0000    0.0000
     atom=  91, XYZ(ang) Fxyz(a.u.)=   6.1723    4.9750   10.5481     0.0000   -0.0000    0.0000
     atom=  92, XYZ(ang) Fxyz(a.u.)=   4.9611    7.0889   10.7955    -0.0000   -0.0000    0.0000
     atom=  93, XYZ(ang) Fxyz(a.u.)=   3.6979    9.2999   11.0882     0.0000    0.0001   -0.0000
     atom=  94, XYZ(ang) Fxyz(a.u.)=   2.4561   11.3953   10.6553     0.0000   -0.0000    0.0000
     atom=  95, XYZ(ang) Fxyz(a.u.)=   1.2284   13.5292   10.4937     0.0000    0.0000   -0.0000
     atom=  96, XYZ(ang) Fxyz(a.u.)=  -0.0032   15.6633   10.4193     0.0000   -0.0000   -0.0000
     atom=  97, XYZ(ang) Fxyz(a.u.)=  11.1006    0.7048   10.4011     0.0000    0.0000   -0.0000
     atom=  98, XYZ(ang) Fxyz(a.u.)=   9.8679    2.8421   10.4152    -0.0000    0.0000   -0.0000
     atom=  99, XYZ(ang) Fxyz(a.u.)=   8.6363    4.9779   10.4840     0.0000   -0.0000   -0.0000
     atom= 100, XYZ(ang) Fxyz(a.u.)=   7.4011    7.1134   10.6142     0.0000   -0.0000   -0.0000
     atom= 101, XYZ(ang) Fxyz(a.u.)=   6.1654    9.2635   10.7478     0.0000    0.0000    0.0000
     atom= 102, XYZ(ang) Fxyz(a.u.)=   4.9405   11.3953   10.6574     0.0000    0.0000    0.0000
     atom= 103, XYZ(ang) Fxyz(a.u.)=   3.6984   13.5218   10.5321    -0.0000    0.0000   -0.0000
     atom= 104, XYZ(ang) Fxyz(a.u.)=   2.4643   15.6606   10.4382     0.0000   -0.0000   -0.0000
     atom= 105, XYZ(ang) Fxyz(a.u.)=  13.5675    0.7033   10.4030    -0.0000    0.0000   -0.0000
     atom= 106, XYZ(ang) Fxyz(a.u.)=  12.3344    2.8412   10.4001    -0.0000    0.0000   -0.0000
     atom= 107, XYZ(ang) Fxyz(a.u.)=  11.1008    4.9788   10.4319    -0.0000   -0.0000   -0.0000
     atom= 108, XYZ(ang) Fxyz(a.u.)=   9.8653    7.1167   10.4930    -0.0000    0.0000   -0.0000
     atom= 109, XYZ(ang) Fxyz(a.u.)=   8.6333    9.2542   10.5599     0.0000    0.0000   -0.0000
     atom= 110, XYZ(ang) Fxyz(a.u.)=   7.4016   11.3912   10.5607     0.0000    0.0000    0.0000
     atom= 111, XYZ(ang) Fxyz(a.u.)=   6.1683   13.5291   10.4959    -0.0000    0.0000   -0.0000
     atom= 112, XYZ(ang) Fxyz(a.u.)=   4.9325   15.6606   10.4389     0.0000    0.0000   -0.0000
     atom= 113, XYZ(ang) Fxyz(a.u.)=  16.0345    0.7048   10.4016    -0.0000    0.0000    0.0000
     atom= 114, XYZ(ang) Fxyz(a.u.)=  14.8006    2.8412   10.4000    -0.0000    0.0000   -0.0000
     atom= 115, XYZ(ang) Fxyz(a.u.)=  13.5675    4.9791   10.4134     0.0000   -0.0000    0.0000
     atom= 116, XYZ(ang) Fxyz(a.u.)=  12.3335    7.1163   10.4365     0.0000   -0.0000    0.0001
     atom= 117, XYZ(ang) Fxyz(a.u.)=  11.0995    9.2531   10.4627     0.0000    0.0000    0.0000
     atom= 118, XYZ(ang) Fxyz(a.u.)=   9.8671   11.3912   10.4746     0.0000    0.0000    0.0000
     atom= 119, XYZ(ang) Fxyz(a.u.)=   8.6347   13.5270   10.4514     0.0000    0.0000    0.0000
     atom= 120, XYZ(ang) Fxyz(a.u.)=   7.3999   15.6632   10.4209    -0.0000    0.0000   -0.0000
     atom= 121, XYZ(ang) Fxyz(a.u.)=  18.5013    0.7055   10.4033    -0.0000    0.0000    0.0000
     atom= 122, XYZ(ang) Fxyz(a.u.)=  17.2670    2.8420   10.4146     0.0000    0.0000    0.0000
     atom= 123, XYZ(ang) Fxyz(a.u.)=  16.0341    4.9788   10.4307     0.0000    0.0000   -0.0000
     atom= 124, XYZ(ang) Fxyz(a.u.)=  14.8015    7.1163   10.4354     0.0000    0.0000    0.0000
     atom= 125, XYZ(ang) Fxyz(a.u.)=  13.5675    9.2535   10.4325     0.0000    0.0000    0.0000
     atom= 126, XYZ(ang) Fxyz(a.u.)=  12.3340   11.3903   10.4269     0.0000   -0.0000    0.0000
     atom= 127, XYZ(ang) Fxyz(a.u.)=  11.1006   13.5273   10.4157     0.0000    0.0000    0.0000
     atom= 128, XYZ(ang) Fxyz(a.u.)=   9.8671   15.6640   10.4037     0.0000    0.0000   -0.0000
     atom= 129, XYZ(ang) Fxyz(a.u.)=   3.6954    8.5317   12.3394     0.0000    0.0000   -0.0000

outputting data on grids to files...


***********************************************************
***********************************************************
               Computational Time (second)                 
***********************************************************
***********************************************************

                               Min_ID   Min_Time       Max_ID   Max_Time
   Total Computational Time =    31    11078.179          0    11078.344
   readfile                 =    29        2.484          0        2.495
   truncation               =    51       36.995         63       38.645
   MD_pac                   =     0        1.799         31        1.952
   OutData                  =    19        0.708          0        0.866
   DFT                      =    63    11034.309         51    11035.960

*** In DFT ***

   Set_OLP_Kin              =    60       43.349         63       64.277
   Set_Nonlocal             =    63       88.020         60      108.918
   Set_ProExpn_VNA          =    31      170.244         63      180.243
   Set_Hamiltonian          =    18      622.786          7      622.799
   Poisson                  =    18        7.735         63        7.736
   Diagonalization          =     0     9528.709         18     9528.728
   Mixing_DM                =    36       68.296          0       68.300
   Force                    =     8      141.144          5      141.144
   Total_Energy             =     7       48.635          0       48.647
   Set_Aden_Grid            =    63        2.429         31       12.423
   Set_Orbitals_Grid        =    51       20.678         63       29.985
   Set_Density_Grid         =    26      201.689         59      237.457
   RestartFileDFT           =    63        3.136         62       11.752
   Mulliken_Charge          =    57        0.480         22        0.480
   FFT(2D)_Density          =     6        8.369         12        8.378
   Others                   =    63        2.761         26       47.983

The calculation was normally finished.
