
The number of threads in each node for OpenMP parallelization is 1.


*******************************************************
*******************************************************
 Welcome to OpenMX   Ver. 3.9.9                           
 Copyright (C), 2002-2019, T. Ozaki                    
 OpenMX comes with ABSOLUTELY NO WARRANTY.             
 This is free software, and you are welcome to         
 redistribute it under the constitution of the GNU-GPL.
*******************************************************
*******************************************************

Automatic determination of Kerker_factor:   3.992939476625


<Input_std>  Your input file was normally read.
<Input_std>  The system includes 1 species and 122 atoms.

*******************************************************
                     PAO and VPS                       
*******************************************************

<SetPara_DFT>  PAOs of species C were normally found.
<SetPara_DFT>  VPSs of species C were normally found.
               C_PBE19.vps is j-dependent.
               In case of scf.SpinOrbit.Coupling=off,
               j-dependent pseudo potentials are averaged by j-degeneracy,
               which corresponds to a scalar relativistic treatment.

*******************************************************
     Fourier transform of PAO and projectors of VNL    
*******************************************************

<FT_PAO>          Fourier transform of pseudo atomic orbitals
<FT_NLP>          Fourier transform of non-local projectors
<FT_ProExpn_VNA>  Fourier transform of VNA separable projectors
<FT_VNA>          Fourier transform of VNA potentials
<FT_ProductPAO>   Fourier transform of product of PAOs

*******************************************************
  Allocation of atoms to processors at MD_iter=    1     
*******************************************************

 proc =   0  # of atoms=   3  estimated weight=         3.00000
 proc =   1  # of atoms=   4  estimated weight=         4.00000
 proc =   2  # of atoms=   4  estimated weight=         4.00000
 proc =   3  # of atoms=   4  estimated weight=         4.00000
 proc =   4  # of atoms=   3  estimated weight=         3.00000
 proc =   5  # of atoms=   4  estimated weight=         4.00000
 proc =   6  # of atoms=   4  estimated weight=         4.00000
 proc =   7  # of atoms=   4  estimated weight=         4.00000
 proc =   8  # of atoms=   3  estimated weight=         3.00000
 proc =   9  # of atoms=   4  estimated weight=         4.00000
 proc =  10  # of atoms=   4  estimated weight=         4.00000
 proc =  11  # of atoms=   4  estimated weight=         4.00000
 proc =  12  # of atoms=   4  estimated weight=         4.00000
 proc =  13  # of atoms=   4  estimated weight=         4.00000
 proc =  14  # of atoms=   4  estimated weight=         4.00000
 proc =  15  # of atoms=   4  estimated weight=         4.00000
 proc =  16  # of atoms=   3  estimated weight=         3.00000
 proc =  17  # of atoms=   4  estimated weight=         4.00000
 proc =  18  # of atoms=   4  estimated weight=         4.00000
 proc =  19  # of atoms=   4  estimated weight=         4.00000
 proc =  20  # of atoms=   3  estimated weight=         3.00000
 proc =  21  # of atoms=   4  estimated weight=         4.00000
 proc =  22  # of atoms=   4  estimated weight=         4.00000
 proc =  23  # of atoms=   4  estimated weight=         4.00000
 proc =  24  # of atoms=   3  estimated weight=         3.00000
 proc =  25  # of atoms=   4  estimated weight=         4.00000
 proc =  26  # of atoms=   4  estimated weight=         4.00000
 proc =  27  # of atoms=   4  estimated weight=         4.00000
 proc =  28  # of atoms=   4  estimated weight=         4.00000
 proc =  29  # of atoms=   4  estimated weight=         4.00000
 proc =  30  # of atoms=   4  estimated weight=         4.00000
 proc =  31  # of atoms=   4  estimated weight=         4.00000




*******************************************************
        Analysis of neighbors and setting of grids        
*******************************************************

TFNAN=    5250   Average FNAN=  43.03279
TSNAN=       0   Average SNAN=   0.00000
<truncation> CpyCell= 1 ct_AN=   1 FNAN SNAN  45   0
<truncation> CpyCell= 1 ct_AN=   2 FNAN SNAN  45   0
<truncation> CpyCell= 1 ct_AN=   3 FNAN SNAN  45   0
<truncation> CpyCell= 1 ct_AN=   4 FNAN SNAN  45   0
<truncation> CpyCell= 1 ct_AN=   5 FNAN SNAN  45   0
<truncation> CpyCell= 1 ct_AN=   6 FNAN SNAN  45   0
<truncation> CpyCell= 1 ct_AN=   7 FNAN SNAN  45   0
<truncation> CpyCell= 1 ct_AN=   8 FNAN SNAN  45   0
<truncation> CpyCell= 1 ct_AN=   9 FNAN SNAN  44   0
<truncation> CpyCell= 1 ct_AN=  10 FNAN SNAN  42   0
<truncation> CpyCell= 1 ct_AN=  11 FNAN SNAN  42   0
<truncation> CpyCell= 1 ct_AN=  12 FNAN SNAN  42   0
<truncation> CpyCell= 1 ct_AN=  13 FNAN SNAN  44   0
<truncation> CpyCell= 1 ct_AN=  14 FNAN SNAN  45   0
<truncation> CpyCell= 1 ct_AN=  15 FNAN SNAN  45   0
<truncation> CpyCell= 1 ct_AN=  16 FNAN SNAN  45   0
<truncation> CpyCell= 1 ct_AN=  17 FNAN SNAN  44   0
<truncation> CpyCell= 1 ct_AN=  18 FNAN SNAN  40   0
<truncation> CpyCell= 1 ct_AN=  19 FNAN SNAN  39   0
<truncation> CpyCell= 1 ct_AN=  20 FNAN SNAN  39   0
     ..........
     ......

TFNAN=    5250   Average FNAN=  43.03279
TSNAN=       0   Average SNAN=   0.00000
<truncation> CpyCell= 2 ct_AN=   1 FNAN SNAN  45   0
<truncation> CpyCell= 2 ct_AN=   2 FNAN SNAN  45   0
<truncation> CpyCell= 2 ct_AN=   3 FNAN SNAN  45   0
<truncation> CpyCell= 2 ct_AN=   4 FNAN SNAN  45   0
<truncation> CpyCell= 2 ct_AN=   5 FNAN SNAN  45   0
<truncation> CpyCell= 2 ct_AN=   6 FNAN SNAN  45   0
<truncation> CpyCell= 2 ct_AN=   7 FNAN SNAN  45   0
<truncation> CpyCell= 2 ct_AN=   8 FNAN SNAN  45   0
<truncation> CpyCell= 2 ct_AN=   9 FNAN SNAN  44   0
<truncation> CpyCell= 2 ct_AN=  10 FNAN SNAN  42   0
<truncation> CpyCell= 2 ct_AN=  11 FNAN SNAN  42   0
<truncation> CpyCell= 2 ct_AN=  12 FNAN SNAN  42   0
<truncation> CpyCell= 2 ct_AN=  13 FNAN SNAN  44   0
<truncation> CpyCell= 2 ct_AN=  14 FNAN SNAN  45   0
<truncation> CpyCell= 2 ct_AN=  15 FNAN SNAN  45   0
<truncation> CpyCell= 2 ct_AN=  16 FNAN SNAN  45   0
<truncation> CpyCell= 2 ct_AN=  17 FNAN SNAN  44   0
<truncation> CpyCell= 2 ct_AN=  18 FNAN SNAN  40   0
<truncation> CpyCell= 2 ct_AN=  19 FNAN SNAN  39   0
<truncation> CpyCell= 2 ct_AN=  20 FNAN SNAN  39   0
     ..........
     ......

TFNAN=    5250   Average FNAN=  43.03279
TSNAN=       0   Average SNAN=   0.00000
<truncation> CpyCell= 2 ct_AN=   1 FNAN SNAN  45   0
<truncation> CpyCell= 2 ct_AN=   2 FNAN SNAN  45   0
<truncation> CpyCell= 2 ct_AN=   3 FNAN SNAN  45   0
<truncation> CpyCell= 2 ct_AN=   4 FNAN SNAN  45   0
<truncation> CpyCell= 2 ct_AN=   5 FNAN SNAN  45   0
<truncation> CpyCell= 2 ct_AN=   6 FNAN SNAN  45   0
<truncation> CpyCell= 2 ct_AN=   7 FNAN SNAN  45   0
<truncation> CpyCell= 2 ct_AN=   8 FNAN SNAN  45   0
<truncation> CpyCell= 2 ct_AN=   9 FNAN SNAN  44   0
<truncation> CpyCell= 2 ct_AN=  10 FNAN SNAN  42   0
<truncation> CpyCell= 2 ct_AN=  11 FNAN SNAN  42   0
<truncation> CpyCell= 2 ct_AN=  12 FNAN SNAN  42   0
<truncation> CpyCell= 2 ct_AN=  13 FNAN SNAN  44   0
<truncation> CpyCell= 2 ct_AN=  14 FNAN SNAN  45   0
<truncation> CpyCell= 2 ct_AN=  15 FNAN SNAN  45   0
<truncation> CpyCell= 2 ct_AN=  16 FNAN SNAN  45   0
<truncation> CpyCell= 2 ct_AN=  17 FNAN SNAN  44   0
<truncation> CpyCell= 2 ct_AN=  18 FNAN SNAN  40   0
<truncation> CpyCell= 2 ct_AN=  19 FNAN SNAN  39   0
<truncation> CpyCell= 2 ct_AN=  20 FNAN SNAN  39   0
     ..........
     ......

<Check_System> The system is slab.
lattice vectors (bohr)
A  = 37.300037061873,  0.000000000000,  0.000000000000
B  = -18.650023066279, 32.302777060622,  0.000000000000
C  =  0.000000000000,  0.000000000000, 39.684245760157
reciprocal lattice vectors (bohr^-1)
RA =  0.168449840861,  0.097254592436, -0.000000000000
RB =  0.000000000000,  0.194509137570,  0.000000000000
RC =  0.000000000000, -0.000000000000,  0.158329462658
Grid_Origin  0.051805606824  0.089729923888  0.091861680000
Cell_Volume =  47815.340626661513 (Bohr^3)
GridVol     =      0.006832324621 (Bohr^3)
Grid_Origin  0.051805606824  0.089729923888  0.091861680000
Cell_Volume =  47815.340626661513 (Bohr^3)
GridVol     =      0.006832324621 (Bohr^3)
<UCell_Box> Info. of cutoff energy and num. of grids
lattice vectors (bohr)
A  = 37.300037061873,  0.000000000000,  0.000000000000
B  = -18.650023066279, 32.302777060622,  0.000000000000
C  =  0.000000000000,  0.000000000000, 39.684245760157
reciprocal lattice vectors (bohr^-1)
RA =  0.168449840861,  0.097254592436, -0.000000000000
RB =  0.000000000000,  0.194509137570,  0.000000000000
RC =  0.000000000000, -0.000000000000,  0.158329462658
Required cutoff energy (Ryd) for 3D-grids = 300.0000
    Used cutoff energy (Ryd) for 3D-grids = 306.4538, 306.4538, 292.3957
Num. of grids of a-, b-, and c-axes = 180, 180, 216
Grid_Origin  0.051805606824  0.089729923888  0.091861680000
Cell_Volume =  47815.340626661513 (Bohr^3)
GridVol     =      0.006832324621 (Bohr^3)
Cell vectors (bohr) of the grid cell (gtv)
  gtv_a =  0.207222428122,  0.000000000000,  0.000000000000
  gtv_b = -0.103611239257,  0.179459872559,  0.000000000000
  gtv_c =  0.000000000000,  0.000000000000,  0.183723360001
  |gtv_a| =  0.207222428122
  |gtv_b| =  0.207222428225
  |gtv_c| =  0.183723360001
Num. of grids overlapping with atom    1 = 132408
Num. of grids overlapping with atom    2 = 132426
Num. of grids overlapping with atom    3 = 132408
Num. of grids overlapping with atom    4 = 132426
Num. of grids overlapping with atom    5 = 132408
Num. of grids overlapping with atom    6 = 132426
Num. of grids overlapping with atom    7 = 132408
Num. of grids overlapping with atom    8 = 132426
Num. of grids overlapping with atom    9 = 132408
Num. of grids overlapping with atom   10 = 132408
Num. of grids overlapping with atom   11 = 132408
Num. of grids overlapping with atom   12 = 132408
Num. of grids overlapping with atom   13 = 132408
Num. of grids overlapping with atom   14 = 132408
Num. of grids overlapping with atom   15 = 132408
Num. of grids overlapping with atom   16 = 132408
Num. of grids overlapping with atom   17 = 132408
Num. of grids overlapping with atom   18 = 132426
Num. of grids overlapping with atom   19 = 132408
Num. of grids overlapping with atom   20 = 132426
     ..........
     ......


*******************************************************
             SCF calculation at MD = 1                
*******************************************************

<MD= 1>  Calculation of the overlap matrix
<MD= 1>  Calculation of the nonlocal matrix
<MD= 1>  Calculation of the VNA projector matrix

******************* MD= 1  SCF= 1 *******************
<Band>  Solving the eigenvalue problem...
 KGrids1:  -0.43750  -0.31250  -0.18750  -0.06250   0.06250   0.18750   0.31250   0.43750 
 KGrids2:  -0.43750  -0.31250  -0.18750  -0.06250   0.06250   0.18750   0.31250   0.43750 
 KGrids3:   0.00000 
<Band_DFT>  Eigen, time=24.025639
<Band_DFT>  DM, time=0.000009
    1    C  MulP   1.9957  1.9957 sum   3.9914
    2    C  MulP   1.9925  1.9925 sum   3.9849
    3    C  MulP   1.9926  1.9926 sum   3.9853
    4    C  MulP   1.9955  1.9955 sum   3.9911
    5    C  MulP   1.9896  1.9896 sum   3.9792
    6    C  MulP   1.9956  1.9956 sum   3.9912
    7    C  MulP   1.9958  1.9958 sum   3.9916
    8    C  MulP   1.9894  1.9894 sum   3.9789
    9    C  MulP   1.9949  1.9949 sum   3.9897
   10    C  MulP   1.9873  1.9873 sum   3.9746
   11    C  MulP   1.9975  1.9975 sum   3.9951
   12    C  MulP   1.9873  1.9873 sum   3.9746
   13    C  MulP   1.9949  1.9949 sum   3.9898
   14    C  MulP   1.9958  1.9958 sum   3.9916
   15    C  MulP   1.9896  1.9896 sum   3.9792
   16    C  MulP   1.9958  1.9958 sum   3.9916
   17    C  MulP   1.9881  1.9881 sum   3.9762
   18    C  MulP   1.9921  1.9921 sum   3.9843
   19    C  MulP   1.9895  1.9895 sum   3.9789
   20    C  MulP   1.9893  1.9893 sum   3.9787
     ..........
     ......

 Sum of MulP: up   =   244.00000 down          =   244.00000
              total=   488.00000 ideal(neutral)=   488.00000
<DFT>  Total Spin Moment (muB) =  0.000000000000
<DFT>  Mixing_weight= 0.050000000000
<DFT>  Uele   = -195.804417416688  dUele     =   1.000000000000
<DFT>  NormRD =    1.000000000000  Criterion =   0.000000010000

******************* MD= 1  SCF= 2 *******************
<Poisson>  Poisson's equation using FFT...
<Set_Hamiltonian>  Hamiltonian matrix for VNA+dVH+Vxc...
<Band>  Solving the eigenvalue problem...
 KGrids1:  -0.43750  -0.31250  -0.18750  -0.06250   0.06250   0.18750   0.31250   0.43750 
 KGrids2:  -0.43750  -0.31250  -0.18750  -0.06250   0.06250   0.18750   0.31250   0.43750 
 KGrids3:   0.00000 
<Band_DFT>  Eigen, time=13.456005
<Band_DFT>  DM, time=0.000001
    1    C  MulP   1.9957  1.9957 sum   3.9914
    2    C  MulP   1.9925  1.9925 sum   3.9849
    3    C  MulP   1.9926  1.9926 sum   3.9853
    4    C  MulP   1.9955  1.9955 sum   3.9911
    5    C  MulP   1.9896  1.9896 sum   3.9792
    6    C  MulP   1.9956  1.9956 sum   3.9912
    7    C  MulP   1.9958  1.9958 sum   3.9916
    8    C  MulP   1.9894  1.9894 sum   3.9789
    9    C  MulP   1.9949  1.9949 sum   3.9897
   10    C  MulP   1.9873  1.9873 sum   3.9746
   11    C  MulP   1.9975  1.9975 sum   3.9951
   12    C  MulP   1.9873  1.9873 sum   3.9746
   13    C  MulP   1.9949  1.9949 sum   3.9898
   14    C  MulP   1.9958  1.9958 sum   3.9916
   15    C  MulP   1.9896  1.9896 sum   3.9792
   16    C  MulP   1.9958  1.9958 sum   3.9916
   17    C  MulP   1.9881  1.9881 sum   3.9762
   18    C  MulP   1.9921  1.9921 sum   3.9843
   19    C  MulP   1.9895  1.9895 sum   3.9789
   20    C  MulP   1.9893  1.9893 sum   3.9787
     ..........
     ......

 Sum of MulP: up   =   244.00000 down          =   244.00000
              total=   488.00000 ideal(neutral)=   488.00000
<DFT>  Total Spin Moment (muB) =  0.000000000000
<DFT>  Mixing_weight= 0.010000000000
<DFT>  Uele   = -195.804417416688  dUele     =   0.000000000000
<DFT>  NormRD =    9.673106247719  Criterion =   0.000000010000

******************* MD= 1  SCF= 3 *******************
<Poisson>  Poisson's equation using FFT...
<Set_Hamiltonian>  Hamiltonian matrix for VNA+dVH+Vxc...
<Band>  Solving the eigenvalue problem...
 KGrids1:  -0.43750  -0.31250  -0.18750  -0.06250   0.06250   0.18750   0.31250   0.43750 
 KGrids2:  -0.43750  -0.31250  -0.18750  -0.06250   0.06250   0.18750   0.31250   0.43750 
 KGrids3:   0.00000 
<Band_DFT>  Eigen, time=13.472463
<Band_DFT>  DM, time=0.000001
    1    C  MulP   1.9959  1.9959 sum   3.9917
    2    C  MulP   1.9927  1.9927 sum   3.9855
    3    C  MulP   1.9929  1.9929 sum   3.9858
    4    C  MulP   1.9957  1.9957 sum   3.9913
    5    C  MulP   1.9899  1.9899 sum   3.9798
    6    C  MulP   1.9957  1.9957 sum   3.9914
    7    C  MulP   1.9959  1.9959 sum   3.9917
    8    C  MulP   1.9897  1.9897 sum   3.9794
    9    C  MulP   1.9950  1.9950 sum   3.9901
   10    C  MulP   1.9877  1.9877 sum   3.9754
   11    C  MulP   1.9976  1.9976 sum   3.9953
   12    C  MulP   1.9877  1.9877 sum   3.9754
   13    C  MulP   1.9950  1.9950 sum   3.9901
   14    C  MulP   1.9959  1.9959 sum   3.9917
   15    C  MulP   1.9899  1.9899 sum   3.9798
   16    C  MulP   1.9959  1.9959 sum   3.9917
   17    C  MulP   1.9884  1.9884 sum   3.9768
   18    C  MulP   1.9924  1.9924 sum   3.9848
   19    C  MulP   1.9894  1.9894 sum   3.9788
   20    C  MulP   1.9893  1.9893 sum   3.9785
     ..........
     ......

 Sum of MulP: up   =   244.00000 down          =   244.00000
              total=   488.00000 ideal(neutral)=   488.00000
<DFT>  Total Spin Moment (muB) =  0.000000000000
<DFT>  Mixing_weight= 0.300000000000
<DFT>  Uele   = -196.227841210483  dUele     =   0.423423793795
<DFT>  NormRD =    9.564481472135  Criterion =   0.000000010000

******************* MD= 1  SCF= 4 *******************
<Poisson>  Poisson's equation using FFT...
<Set_Hamiltonian>  Hamiltonian matrix for VNA+dVH+Vxc...
<Band>  Solving the eigenvalue problem...
 KGrids1:  -0.43750  -0.31250  -0.18750  -0.06250   0.06250   0.18750   0.31250   0.43750 
 KGrids2:  -0.43750  -0.31250  -0.18750  -0.06250   0.06250   0.18750   0.31250   0.43750 
 KGrids3:   0.00000 
<Band_DFT>  Eigen, time=13.492602
<Band_DFT>  DM, time=0.000000
    1    C  MulP   2.0012  2.0012 sum   4.0024
    2    C  MulP   2.0033  2.0033 sum   4.0065
    3    C  MulP   2.0034  2.0034 sum   4.0069
    4    C  MulP   2.0010  2.0010 sum   4.0019
    5    C  MulP   2.0030  2.0030 sum   4.0059
    6    C  MulP   2.0000  2.0000 sum   4.0000
    7    C  MulP   2.0002  2.0002 sum   4.0004
    8    C  MulP   2.0028  2.0028 sum   4.0056
    9    C  MulP   2.0014  2.0014 sum   4.0029
   10    C  MulP   2.0042  2.0042 sum   4.0084
   11    C  MulP   2.0007  2.0007 sum   4.0014
   12    C  MulP   2.0041  2.0041 sum   4.0083
   13    C  MulP   2.0014  2.0014 sum   4.0028
   14    C  MulP   2.0002  2.0002 sum   4.0004
   15    C  MulP   2.0024  2.0024 sum   4.0048
   16    C  MulP   2.0002  2.0002 sum   4.0004
   17    C  MulP   2.0022  2.0022 sum   4.0044
   18    C  MulP   1.9991  1.9991 sum   3.9982
   19    C  MulP   1.9880  1.9880 sum   3.9759
   20    C  MulP   1.9877  1.9877 sum   3.9753
     ..........
     ......

 Sum of MulP: up   =   244.00000 down          =   244.00000
              total=   488.00000 ideal(neutral)=   488.00000
<DFT>  Total Spin Moment (muB) =  0.000000000000
<DFT>  Mixing_weight= 0.300000000000
<DFT>  Uele   = -208.747750484302  dUele     =  12.519909273819
<DFT>  NormRD =    6.422465758563  Criterion =   0.000000010000

******************* MD= 1  SCF= 5 *******************
<Poisson>  Poisson's equation using FFT...
<Set_Hamiltonian>  Hamiltonian matrix for VNA+dVH+Vxc...
<Band>  Solving the eigenvalue problem...
 KGrids1:  -0.43750  -0.31250  -0.18750  -0.06250   0.06250   0.18750   0.31250   0.43750 
 KGrids2:  -0.43750  -0.31250  -0.18750  -0.06250   0.06250   0.18750   0.31250   0.43750 
 KGrids3:   0.00000 
<Band_DFT>  Eigen, time=13.495309
<Band_DFT>  DM, time=0.000000
    1    C  MulP   1.9964  1.9964 sum   3.9928
    2    C  MulP   1.9931  1.9931 sum   3.9861
    3    C  MulP   1.9933  1.9933 sum   3.9866
    4    C  MulP   1.9962  1.9962 sum   3.9924
    5    C  MulP   1.9926  1.9926 sum   3.9853
    6    C  MulP   1.9966  1.9966 sum   3.9931
    7    C  MulP   1.9968  1.9968 sum   3.9935
    8    C  MulP   1.9924  1.9924 sum   3.9848
    9    C  MulP   1.9963  1.9963 sum   3.9927
   10    C  MulP   1.9907  1.9907 sum   3.9814
   11    C  MulP   1.9935  1.9935 sum   3.9869
   12    C  MulP   1.9908  1.9908 sum   3.9816
   13    C  MulP   1.9965  1.9965 sum   3.9930
   14    C  MulP   1.9968  1.9968 sum   3.9936
   15    C  MulP   1.9927  1.9927 sum   3.9853
   16    C  MulP   1.9968  1.9968 sum   3.9935
   17    C  MulP   1.9914  1.9914 sum   3.9827
   18    C  MulP   1.9972  1.9972 sum   3.9943
   19    C  MulP   1.9798  1.9798 sum   3.9596
   20    C  MulP   1.9801  1.9801 sum   3.9602
     ..........
     ......

 Sum of MulP: up   =   244.00000 down          =   244.00000
              total=   488.00000 ideal(neutral)=   488.00000
<DFT>  Total Spin Moment (muB) =  0.000000000000
<DFT>  Mixing_weight= 0.300000000000
<DFT>  Uele   = -216.131554671591  dUele     =   7.383804187289
<DFT>  NormRD =    4.349345692382  Criterion =   0.000000010000

******************* MD= 1  SCF= 6 *******************
<Poisson>  Poisson's equation using FFT...
<Set_Hamiltonian>  Hamiltonian matrix for VNA+dVH+Vxc...
<Band>  Solving the eigenvalue problem...
 KGrids1:  -0.43750  -0.31250  -0.18750  -0.06250   0.06250   0.18750   0.31250   0.43750 
 KGrids2:  -0.43750  -0.31250  -0.18750  -0.06250   0.06250   0.18750   0.31250   0.43750 
 KGrids3:   0.00000 
<Band_DFT>  Eigen, time=13.469993
<Band_DFT>  DM, time=0.000001
    1    C  MulP   2.0016  2.0016 sum   4.0032
    2    C  MulP   2.0034  2.0034 sum   4.0068
    3    C  MulP   2.0035  2.0035 sum   4.0071
    4    C  MulP   2.0014  2.0014 sum   4.0029
    5    C  MulP   2.0036  2.0036 sum   4.0072
    6    C  MulP   2.0006  2.0006 sum   4.0011
    7    C  MulP   2.0008  2.0008 sum   4.0016
    8    C  MulP   2.0035  2.0035 sum   4.0070
    9    C  MulP   2.0020  2.0020 sum   4.0040
   10    C  MulP   2.0052  2.0052 sum   4.0105
   11    C  MulP   1.9997  1.9997 sum   3.9993
   12    C  MulP   2.0049  2.0049 sum   4.0097
   13    C  MulP   2.0017  2.0017 sum   4.0034
   14    C  MulP   2.0008  2.0008 sum   4.0015
   15    C  MulP   2.0032  2.0032 sum   4.0063
   16    C  MulP   2.0008  2.0008 sum   4.0016
   17    C  MulP   2.0033  2.0033 sum   4.0065
   18    C  MulP   2.0006  2.0006 sum   4.0011
   19    C  MulP   1.9858  1.9858 sum   3.9717
   20    C  MulP   1.9839  1.9839 sum   3.9679
     ..........
     ......

 Sum of MulP: up   =   244.00000 down          =   244.00000
              total=   488.00000 ideal(neutral)=   488.00000
<DFT>  Total Spin Moment (muB) =  0.000000000000
<DFT>  Mixing_weight= 0.300000000000
<DFT>  Uele   = -221.390484922404  dUele     =   5.258930250813
<DFT>  NormRD =    3.013066308787  Criterion =   0.000000010000

******************* MD= 1  SCF= 7 *******************
<Poisson>  Poisson's equation using FFT...
<Set_Hamiltonian>  Hamiltonian matrix for VNA+dVH+Vxc...
<Band>  Solving the eigenvalue problem...
 KGrids1:  -0.43750  -0.31250  -0.18750  -0.06250   0.06250   0.18750   0.31250   0.43750 
 KGrids2:  -0.43750  -0.31250  -0.18750  -0.06250   0.06250   0.18750   0.31250   0.43750 
 KGrids3:   0.00000 
<Band_DFT>  Eigen, time=13.488411
<Band_DFT>  DM, time=0.000001
    1    C  MulP   1.9968  1.9968 sum   3.9936
    2    C  MulP   1.9937  1.9937 sum   3.9873
    3    C  MulP   1.9943  1.9943 sum   3.9885
    4    C  MulP   1.9965  1.9965 sum   3.9930
    5    C  MulP   1.9933  1.9933 sum   3.9866
    6    C  MulP   1.9971  1.9971 sum   3.9941
    7    C  MulP   1.9973  1.9973 sum   3.9945
    8    C  MulP   1.9929  1.9929 sum   3.9857
    9    C  MulP   1.9966  1.9966 sum   3.9932
   10    C  MulP   1.9902  1.9902 sum   3.9804
   11    C  MulP   1.9948  1.9948 sum   3.9896
   12    C  MulP   1.9912  1.9912 sum   3.9824
   13    C  MulP   1.9976  1.9976 sum   3.9951
   14    C  MulP   1.9973  1.9973 sum   3.9947
   15    C  MulP   1.9933  1.9933 sum   3.9867
   16    C  MulP   1.9973  1.9973 sum   3.9945
   17    C  MulP   1.9919  1.9919 sum   3.9837
   18    C  MulP   1.9944  1.9944 sum   3.9888
   19    C  MulP   1.9725  1.9725 sum   3.9450
   20    C  MulP   1.9777  1.9777 sum   3.9553
     ..........
     ......

 Sum of MulP: up   =   244.00000 down          =   244.00000
              total=   488.00000 ideal(neutral)=   488.00000
<DFT>  Total Spin Moment (muB) =  0.000000000000
<DFT>  Mixing_weight= 0.300000000000
<DFT>  Uele   = -224.391195056169  dUele     =   3.000710133766
<DFT>  NormRD =    2.337300561148  Criterion =   0.000000010000

******************* MD= 1  SCF= 8 *******************
<Poisson>  Poisson's equation using FFT...
<Set_Hamiltonian>  Hamiltonian matrix for VNA+dVH+Vxc...
<Band>  Solving the eigenvalue problem...
 KGrids1:  -0.43750  -0.31250  -0.18750  -0.06250   0.06250   0.18750   0.31250   0.43750 
 KGrids2:  -0.43750  -0.31250  -0.18750  -0.06250   0.06250   0.18750   0.31250   0.43750 
 KGrids3:   0.00000 
<Band_DFT>  Eigen, time=13.492274
<Band_DFT>  DM, time=0.000000
    1    C  MulP   2.0003  2.0003 sum   4.0006
    2    C  MulP   1.9999  1.9999 sum   3.9999
    3    C  MulP   1.9992  1.9992 sum   3.9983
    4    C  MulP   2.0005  2.0005 sum   4.0010
    5    C  MulP   1.9997  1.9997 sum   3.9993
    6    C  MulP   1.9992  1.9992 sum   3.9985
    7    C  MulP   1.9995  1.9995 sum   3.9991
    8    C  MulP   2.0000  2.0000 sum   4.0001
    9    C  MulP   2.0009  2.0009 sum   4.0019
   10    C  MulP   2.0025  2.0025 sum   4.0050
   11    C  MulP   1.9970  1.9970 sum   3.9940
   12    C  MulP   1.9999  1.9999 sum   3.9999
   13    C  MulP   1.9994  1.9994 sum   3.9988
   14    C  MulP   1.9994  1.9994 sum   3.9989
   15    C  MulP   1.9996  1.9996 sum   3.9992
   16    C  MulP   1.9995  1.9995 sum   3.9991
   17    C  MulP   1.9997  1.9997 sum   3.9994
   18    C  MulP   2.0062  2.0062 sum   4.0123
   19    C  MulP   1.9923  1.9923 sum   3.9846
   20    C  MulP   1.9802  1.9802 sum   3.9604
     ..........
     ......

 Sum of MulP: up   =   244.00000 down          =   244.00000
              total=   488.00000 ideal(neutral)=   488.00000
<DFT>  Total Spin Moment (muB) =  0.000000000000
<DFT>  Mixing_weight= 0.141509676290
<DFT>  Uele   = -226.939009452380  dUele     =   2.547814396211
<DFT>  NormRD =    2.473562400664  Criterion =   0.000000010000

******************* MD= 1  SCF= 9 *******************
<Poisson>  Poisson's equation using FFT...
<Set_Hamiltonian>  Hamiltonian matrix for VNA+dVH+Vxc...
<Band>  Solving the eigenvalue problem...
 KGrids1:  -0.43750  -0.31250  -0.18750  -0.06250   0.06250   0.18750   0.31250   0.43750 
 KGrids2:  -0.43750  -0.31250  -0.18750  -0.06250   0.06250   0.18750   0.31250   0.43750 
 KGrids3:   0.00000 
<Band_DFT>  Eigen, time=13.485639
<Band_DFT>  DM, time=0.000001
    1    C  MulP   2.0011  2.0011 sum   4.0023
    2    C  MulP   2.0025  2.0025 sum   4.0051
    3    C  MulP   2.0031  2.0031 sum   4.0062
    4    C  MulP   2.0008  2.0008 sum   4.0015
    5    C  MulP   2.0027  2.0027 sum   4.0055
    6    C  MulP   2.0005  2.0005 sum   4.0011
    7    C  MulP   2.0007  2.0007 sum   4.0013
    8    C  MulP   2.0022  2.0022 sum   4.0044
    9    C  MulP   2.0013  2.0013 sum   4.0027
   10    C  MulP   2.0025  2.0025 sum   4.0049
   11    C  MulP   2.0002  2.0002 sum   4.0005
   12    C  MulP   2.0034  2.0034 sum   4.0069
   13    C  MulP   2.0016  2.0016 sum   4.0033
   14    C  MulP   2.0007  2.0007 sum   4.0014
   15    C  MulP   2.0023  2.0023 sum   4.0047
   16    C  MulP   2.0007  2.0007 sum   4.0013
   17    C  MulP   2.0020  2.0020 sum   4.0041
   18    C  MulP   1.9958  1.9958 sum   3.9915
   19    C  MulP   1.9771  1.9771 sum   3.9542
   20    C  MulP   1.9845  1.9845 sum   3.9690
     ..........
     ......

 Sum of MulP: up   =   244.00000 down          =   244.00000
              total=   488.00000 ideal(neutral)=   488.00000
<DFT>  Total Spin Moment (muB) =  0.000000000000
<DFT>  Mixing_weight= 0.209215429392
<DFT>  Uele   = -227.570548965654  dUele     =   0.631539513274
<DFT>  NormRD =    1.407144839635  Criterion =   0.000000010000

******************* MD= 1  SCF=10 *******************
<Poisson>  Poisson's equation using FFT...
<Set_Hamiltonian>  Hamiltonian matrix for VNA+dVH+Vxc...
<Band>  Solving the eigenvalue problem...
 KGrids1:  -0.43750  -0.31250  -0.18750  -0.06250   0.06250   0.18750   0.31250   0.43750 
 KGrids2:  -0.43750  -0.31250  -0.18750  -0.06250   0.06250   0.18750   0.31250   0.43750 
 KGrids3:   0.00000 
<Band_DFT>  Eigen, time=13.505423
<Band_DFT>  DM, time=0.000001
    1    C  MulP   1.9985  1.9985 sum   3.9970
    2    C  MulP   1.9964  1.9964 sum   3.9928
    3    C  MulP   1.9963  1.9963 sum   3.9926
    4    C  MulP   1.9984  1.9984 sum   3.9968
    5    C  MulP   1.9963  1.9963 sum   3.9926
    6    C  MulP   1.9983  1.9983 sum   3.9966
    7    C  MulP   1.9985  1.9985 sum   3.9971
    8    C  MulP   1.9963  1.9963 sum   3.9926
    9    C  MulP   1.9988  1.9988 sum   3.9976
   10    C  MulP   1.9965  1.9965 sum   3.9930
   11    C  MulP   1.9952  1.9952 sum   3.9903
   12    C  MulP   1.9956  1.9956 sum   3.9911
   13    C  MulP   1.9978  1.9978 sum   3.9956
   14    C  MulP   1.9985  1.9985 sum   3.9969
   15    C  MulP   1.9964  1.9964 sum   3.9927
   16    C  MulP   1.9985  1.9985 sum   3.9971
   17    C  MulP   1.9957  1.9957 sum   3.9914
   18    C  MulP   2.0007  2.0007 sum   4.0014
   19    C  MulP   1.9849  1.9849 sum   3.9699
   20    C  MulP   1.9802  1.9802 sum   3.9605
     ..........
     ......

 Sum of MulP: up   =   244.00000 down          =   244.00000
              total=   488.00000 ideal(neutral)=   488.00000
<DFT>  Total Spin Moment (muB) =  0.000000000000
<DFT>  Mixing_weight= 0.100923685657
<DFT>  Uele   = -228.381282062826  dUele     =   0.810733097171
<DFT>  NormRD =    1.457605252648  Criterion =   0.000000010000

******************* MD= 1  SCF=11 *******************
<Poisson>  Poisson's equation using FFT...
<Set_Hamiltonian>  Hamiltonian matrix for VNA+dVH+Vxc...
<Band>  Solving the eigenvalue problem...
 KGrids1:  -0.43750  -0.31250  -0.18750  -0.06250   0.06250   0.18750   0.31250   0.43750 
 KGrids2:  -0.43750  -0.31250  -0.18750  -0.06250   0.06250   0.18750   0.31250   0.43750 
 KGrids3:   0.00000 
<Band_DFT>  Eigen, time=13.506341
<Band_DFT>  DM, time=0.000000
    1    C  MulP   1.9995  1.9995 sum   3.9991
    2    C  MulP   1.9990  1.9990 sum   3.9981
    3    C  MulP   1.9994  1.9994 sum   3.9987
    4    C  MulP   1.9993  1.9993 sum   3.9985
    5    C  MulP   1.9991  1.9991 sum   3.9982
    6    C  MulP   1.9992  1.9992 sum   3.9985
    7    C  MulP   1.9994  1.9994 sum   3.9989
    8    C  MulP   1.9988  1.9988 sum   3.9976
    9    C  MulP   1.9996  1.9996 sum   3.9991
   10    C  MulP   1.9981  1.9981 sum   3.9962
   11    C  MulP   1.9976  1.9976 sum   3.9953
   12    C  MulP   1.9985  1.9985 sum   3.9970
   13    C  MulP   2.0000  2.0000 sum   4.0000
   14    C  MulP   1.9995  1.9995 sum   3.9989
   15    C  MulP   1.9990  1.9990 sum   3.9980
   16    C  MulP   1.9994  1.9994 sum   3.9989
   17    C  MulP   1.9983  1.9983 sum   3.9966
   18    C  MulP   1.9961  1.9961 sum   3.9922
   19    C  MulP   1.9771  1.9771 sum   3.9541
   20    C  MulP   1.9795  1.9795 sum   3.9590
     ..........
     ......

 Sum of MulP: up   =   244.00000 down          =   244.00000
              total=   488.00000 ideal(neutral)=   488.00000
<DFT>  Total Spin Moment (muB) =  0.000000000000
<DFT>  Mixing_weight= 0.189542259707
<DFT>  Uele   = -228.789135386333  dUele     =   0.407853323507
<DFT>  NormRD =    0.996665158621  Criterion =   0.000000010000

******************* MD= 1  SCF=12 *******************
<Poisson>  Poisson's equation using FFT...
<Set_Hamiltonian>  Hamiltonian matrix for VNA+dVH+Vxc...
<Band>  Solving the eigenvalue problem...
 KGrids1:  -0.43750  -0.31250  -0.18750  -0.06250   0.06250   0.18750   0.31250   0.43750 
 KGrids2:  -0.43750  -0.31250  -0.18750  -0.06250   0.06250   0.18750   0.31250   0.43750 
 KGrids3:   0.00000 
<Band_DFT>  Eigen, time=13.497450
<Band_DFT>  DM, time=0.000000
    1    C  MulP   1.9992  1.9992 sum   3.9985
    2    C  MulP   1.9979  1.9979 sum   3.9957
    3    C  MulP   1.9978  1.9978 sum   3.9957
    4    C  MulP   1.9991  1.9991 sum   3.9982
    5    C  MulP   1.9978  1.9978 sum   3.9957
    6    C  MulP   1.9988  1.9988 sum   3.9977
    7    C  MulP   1.9991  1.9991 sum   3.9982
    8    C  MulP   1.9979  1.9979 sum   3.9957
    9    C  MulP   1.9995  1.9995 sum   3.9991
   10    C  MulP   1.9984  1.9984 sum   3.9969
   11    C  MulP   1.9962  1.9962 sum   3.9924
   12    C  MulP   1.9976  1.9976 sum   3.9952
   13    C  MulP   1.9987  1.9987 sum   3.9974
   14    C  MulP   1.9991  1.9991 sum   3.9981
   15    C  MulP   1.9979  1.9979 sum   3.9957
   16    C  MulP   1.9991  1.9991 sum   3.9982
   17    C  MulP   1.9973  1.9973 sum   3.9947
   18    C  MulP   2.0007  2.0007 sum   4.0015
   19    C  MulP   1.9850  1.9850 sum   3.9700
   20    C  MulP   1.9805  1.9805 sum   3.9611
     ..........
     ......

 Sum of MulP: up   =   244.00000 down          =   244.00000
              total=   488.00000 ideal(neutral)=   488.00000
<DFT>  Total Spin Moment (muB) =  0.000000000000
<DFT>  Mixing_weight= 0.077384145278
<DFT>  Uele   = -229.430477912643  dUele     =   0.641342526310
<DFT>  NormRD =    1.199882256477  Criterion =   0.000000010000

******************* MD= 1  SCF=13 *******************
<Poisson>  Poisson's equation using FFT...
<Set_Hamiltonian>  Hamiltonian matrix for VNA+dVH+Vxc...
<Band>  Solving the eigenvalue problem...
 KGrids1:  -0.43750  -0.31250  -0.18750  -0.06250   0.06250   0.18750   0.31250   0.43750 
 KGrids2:  -0.43750  -0.31250  -0.18750  -0.06250   0.06250   0.18750   0.31250   0.43750 
 KGrids3:   0.00000 
<Band_DFT>  Eigen, time=13.507937
<Band_DFT>  DM, time=0.000001
    1    C  MulP   1.9999  1.9999 sum   3.9998
    2    C  MulP   1.9996  1.9996 sum   3.9992
    3    C  MulP   1.9998  1.9998 sum   3.9996
    4    C  MulP   1.9997  1.9997 sum   3.9993
    5    C  MulP   1.9998  1.9998 sum   3.9996
    6    C  MulP   1.9995  1.9995 sum   3.9991
    7    C  MulP   1.9998  1.9998 sum   3.9995
    8    C  MulP   1.9996  1.9996 sum   3.9992
    9    C  MulP   2.0000  2.0000 sum   4.0001
   10    C  MulP   1.9995  1.9995 sum   3.9991
   11    C  MulP   1.9976  1.9976 sum   3.9952
   12    C  MulP   1.9996  1.9996 sum   3.9991
   13    C  MulP   2.0001  2.0001 sum   4.0002
   14    C  MulP   1.9998  1.9998 sum   3.9995
   15    C  MulP   1.9997  1.9997 sum   3.9994
   16    C  MulP   1.9998  1.9998 sum   3.9995
   17    C  MulP   1.9992  1.9992 sum   3.9984
   18    C  MulP   1.9974  1.9974 sum   3.9947
   19    C  MulP   1.9796  1.9796 sum   3.9591
   20    C  MulP   1.9800  1.9800 sum   3.9601
     ..........
     ......

 Sum of MulP: up   =   244.00000 down          =   244.00000
              total=   488.00000 ideal(neutral)=   488.00000
<DFT>  Total Spin Moment (muB) =  0.000000000000
<DFT>  Mixing_weight= 0.106525723054
<DFT>  Uele   = -229.654126498287  dUele     =   0.223648585644
<DFT>  NormRD =    0.627578297336  Criterion =   0.000000010000

******************* MD= 1  SCF=14 *******************
<Poisson>  Poisson's equation using FFT...
<Set_Hamiltonian>  Hamiltonian matrix for VNA+dVH+Vxc...
<Band>  Solving the eigenvalue problem...
 KGrids1:  -0.43750  -0.31250  -0.18750  -0.06250   0.06250   0.18750   0.31250   0.43750 
 KGrids2:  -0.43750  -0.31250  -0.18750  -0.06250   0.06250   0.18750   0.31250   0.43750 
 KGrids3:   0.00000 
<Band_DFT>  Eigen, time=13.510657
<Band_DFT>  DM, time=0.000000
    1    C  MulP   1.9996  1.9996 sum   3.9992
    2    C  MulP   1.9989  1.9989 sum   3.9978
    3    C  MulP   1.9991  1.9991 sum   3.9982
    4    C  MulP   1.9994  1.9994 sum   3.9988
    5    C  MulP   1.9990  1.9990 sum   3.9981
    6    C  MulP   1.9993  1.9993 sum   3.9986
    7    C  MulP   1.9995  1.9995 sum   3.9990
    8    C  MulP   1.9989  1.9989 sum   3.9977
    9    C  MulP   1.9998  1.9998 sum   3.9996
   10    C  MulP   1.9989  1.9989 sum   3.9977
   11    C  MulP   1.9972  1.9972 sum   3.9943
   12    C  MulP   1.9987  1.9987 sum   3.9975
   13    C  MulP   1.9996  1.9996 sum   3.9993
   14    C  MulP   1.9995  1.9995 sum   3.9990
   15    C  MulP   1.9990  1.9990 sum   3.9979
   16    C  MulP   1.9995  1.9995 sum   3.9990
   17    C  MulP   1.9984  1.9984 sum   3.9968
   18    C  MulP   1.9980  1.9980 sum   3.9961
   19    C  MulP   1.9806  1.9806 sum   3.9612
   20    C  MulP   1.9801  1.9801 sum   3.9602
     ..........
     ......

 Sum of MulP: up   =   244.00000 down          =   244.00000
              total=   488.00000 ideal(neutral)=   488.00000
<DFT>  Total Spin Moment (muB) =  0.000000000000
<DFT>  Mixing_weight= 0.300000000000
<DFT>  Uele   = -229.924865381217  dUele     =   0.270738882930
<DFT>  NormRD =    0.560261483804  Criterion =   0.000000010000

******************* MD= 1  SCF=15 *******************
<Poisson>  Poisson's equation using FFT...
<Set_Hamiltonian>  Hamiltonian matrix for VNA+dVH+Vxc...
<Band>  Solving the eigenvalue problem...
 KGrids1:  -0.43750  -0.31250  -0.18750  -0.06250   0.06250   0.18750   0.31250   0.43750 
 KGrids2:  -0.43750  -0.31250  -0.18750  -0.06250   0.06250   0.18750   0.31250   0.43750 
 KGrids3:   0.00000 
<Band_DFT>  Eigen, time=13.507601
<Band_DFT>  DM, time=0.000000
    1    C  MulP   1.9994  1.9994 sum   3.9987
    2    C  MulP   1.9986  1.9986 sum   3.9972
    3    C  MulP   1.9990  1.9990 sum   3.9979
    4    C  MulP   1.9991  1.9991 sum   3.9982
    5    C  MulP   1.9985  1.9985 sum   3.9970
    6    C  MulP   1.9991  1.9991 sum   3.9982
    7    C  MulP   1.9993  1.9993 sum   3.9986
    8    C  MulP   1.9981  1.9981 sum   3.9963
    9    C  MulP   1.9994  1.9994 sum   3.9988
   10    C  MulP   1.9975  1.9975 sum   3.9950
   11    C  MulP   1.9976  1.9976 sum   3.9953
   12    C  MulP   1.9979  1.9979 sum   3.9957
   13    C  MulP   1.9999  1.9999 sum   3.9998
   14    C  MulP   1.9993  1.9993 sum   3.9986
   15    C  MulP   1.9984  1.9984 sum   3.9967
   16    C  MulP   1.9993  1.9993 sum   3.9986
   17    C  MulP   1.9976  1.9976 sum   3.9953
   18    C  MulP   1.9965  1.9965 sum   3.9931
   19    C  MulP   1.9770  1.9770 sum   3.9539
   20    C  MulP   1.9788  1.9788 sum   3.9575
     ..........
     ......

 Sum of MulP: up   =   244.00000 down          =   244.00000
              total=   488.00000 ideal(neutral)=   488.00000
<DFT>  Total Spin Moment (muB) =  0.000000000000
<DFT>  Mixing_weight= 0.030000000000
<DFT>  Uele   = -230.659524630289  dUele     =   0.734659249072
<DFT>  NormRD =    0.667004566958  Criterion =   0.000000010000

******************* MD= 1  SCF=16 *******************
<Poisson>  Poisson's equation using FFT...
<Set_Hamiltonian>  Hamiltonian matrix for VNA+dVH+Vxc...
<Band>  Solving the eigenvalue problem...
 KGrids1:  -0.43750  -0.31250  -0.18750  -0.06250   0.06250   0.18750   0.31250   0.43750 
 KGrids2:  -0.43750  -0.31250  -0.18750  -0.06250   0.06250   0.18750   0.31250   0.43750 
 KGrids3:   0.00000 
<Band_DFT>  Eigen, time=13.508654
<Band_DFT>  DM, time=0.000000
    1    C  MulP   2.0000  2.0000 sum   4.0001
    2    C  MulP   1.9990  1.9990 sum   3.9980
    3    C  MulP   1.9988  1.9988 sum   3.9976
    4    C  MulP   1.9998  1.9998 sum   3.9995
    5    C  MulP   1.9987  1.9987 sum   3.9974
    6    C  MulP   1.9994  1.9994 sum   3.9987
    7    C  MulP   1.9997  1.9997 sum   3.9994
    8    C  MulP   1.9990  1.9990 sum   3.9979
    9    C  MulP   2.0004  2.0004 sum   4.0008
   10    C  MulP   2.0000  2.0000 sum   3.9999
   11    C  MulP   1.9974  1.9974 sum   3.9947
   12    C  MulP   1.9985  1.9985 sum   3.9969
   13    C  MulP   1.9992  1.9992 sum   3.9984
   14    C  MulP   1.9995  1.9995 sum   3.9990
   15    C  MulP   1.9987  1.9987 sum   3.9974
   16    C  MulP   1.9997  1.9997 sum   3.9994
   17    C  MulP   1.9985  1.9985 sum   3.9969
   18    C  MulP   2.0018  2.0018 sum   4.0037
   19    C  MulP   1.9862  1.9862 sum   3.9725
   20    C  MulP   1.9796  1.9796 sum   3.9593
     ..........
     ......

 Sum of MulP: up   =   244.00000 down          =   244.00000
              total=   488.00000 ideal(neutral)=   488.00000
<DFT>  Total Spin Moment (muB) =  0.000000000000
<DFT>  Mixing_weight= 0.030000000000
<DFT>  Uele   = -232.539589515100  dUele     =   1.880064884812
<DFT>  NormRD =    0.966561177168  Criterion =   0.000000010000

******************* MD= 1  SCF=17 *******************
<Poisson>  Poisson's equation using FFT...
<Set_Hamiltonian>  Hamiltonian matrix for VNA+dVH+Vxc...
<Band>  Solving the eigenvalue problem...
 KGrids1:  -0.43750  -0.31250  -0.18750  -0.06250   0.06250   0.18750   0.31250   0.43750 
 KGrids2:  -0.43750  -0.31250  -0.18750  -0.06250   0.06250   0.18750   0.31250   0.43750 
 KGrids3:   0.00000 
<Band_DFT>  Eigen, time=13.514788
<Band_DFT>  DM, time=0.000000
    1    C  MulP   2.0014  2.0014 sum   4.0029
    2    C  MulP   2.0025  2.0025 sum   4.0051
    3    C  MulP   2.0032  2.0032 sum   4.0065
    4    C  MulP   2.0016  2.0016 sum   4.0033
    5    C  MulP   2.0037  2.0037 sum   4.0074
    6    C  MulP   2.0014  2.0014 sum   4.0027
    7    C  MulP   2.0013  2.0013 sum   4.0026
    8    C  MulP   2.0028  2.0028 sum   4.0055
    9    C  MulP   2.0014  2.0014 sum   4.0028
   10    C  MulP   2.0022  2.0022 sum   4.0043
   11    C  MulP   1.9985  1.9985 sum   3.9969
   12    C  MulP   2.0043  2.0043 sum   4.0086
   13    C  MulP   2.0025  2.0025 sum   4.0050
   14    C  MulP   2.0017  2.0017 sum   4.0035
   15    C  MulP   2.0032  2.0032 sum   4.0064
   16    C  MulP   2.0013  2.0013 sum   4.0026
   17    C  MulP   2.0024  2.0024 sum   4.0048
   18    C  MulP   1.9952  1.9952 sum   3.9904
   19    C  MulP   1.9751  1.9751 sum   3.9502
   20    C  MulP   1.9830  1.9830 sum   3.9660
     ..........
     ......

 Sum of MulP: up   =   244.00000 down          =   244.00000
              total=   488.00000 ideal(neutral)=   488.00000
<DFT>  Total Spin Moment (muB) =  0.000000000000
<DFT>  Mixing_weight= 0.030000000000
<DFT>  Uele   = -234.152455955008  dUele     =   1.612866439908
<DFT>  NormRD =    0.507185156875  Criterion =   0.000000010000

******************* MD= 1  SCF=18 *******************
<Poisson>  Poisson's equation using FFT...
<Set_Hamiltonian>  Hamiltonian matrix for VNA+dVH+Vxc...
<Band>  Solving the eigenvalue problem...
 KGrids1:  -0.43750  -0.31250  -0.18750  -0.06250   0.06250   0.18750   0.31250   0.43750 
 KGrids2:  -0.43750  -0.31250  -0.18750  -0.06250   0.06250   0.18750   0.31250   0.43750 
 KGrids3:   0.00000 
<Band_DFT>  Eigen, time=13.512032
<Band_DFT>  DM, time=0.000000
    1    C  MulP   1.9987  1.9987 sum   3.9973
    2    C  MulP   1.9978  1.9978 sum   3.9955
    3    C  MulP   1.9982  1.9982 sum   3.9964
    4    C  MulP   1.9986  1.9986 sum   3.9972
    5    C  MulP   1.9981  1.9981 sum   3.9963
    6    C  MulP   1.9987  1.9987 sum   3.9974
    7    C  MulP   1.9988  1.9988 sum   3.9976
    8    C  MulP   1.9976  1.9976 sum   3.9953
    9    C  MulP   1.9988  1.9988 sum   3.9976
   10    C  MulP   1.9972  1.9972 sum   3.9945
   11    C  MulP   1.9966  1.9966 sum   3.9932
   12    C  MulP   1.9982  1.9982 sum   3.9964
   13    C  MulP   1.9992  1.9992 sum   3.9985
   14    C  MulP   1.9990  1.9990 sum   3.9980
   15    C  MulP   1.9981  1.9981 sum   3.9961
   16    C  MulP   1.9988  1.9988 sum   3.9976
   17    C  MulP   1.9974  1.9974 sum   3.9948
   18    C  MulP   1.9963  1.9963 sum   3.9927
   19    C  MulP   1.9777  1.9777 sum   3.9555
   20    C  MulP   1.9823  1.9823 sum   3.9646
     ..........
     ......

 Sum of MulP: up   =   244.00000 down          =   244.00000
              total=   488.00000 ideal(neutral)=   488.00000
<DFT>  Total Spin Moment (muB) =  0.000000000000
<DFT>  Mixing_weight= 0.030000000000
<DFT>  Uele   = -234.091450020749  dUele     =   0.061005934260
<DFT>  NormRD =    0.127968056198  Criterion =   0.000000010000

******************* MD= 1  SCF=19 *******************
<Poisson>  Poisson's equation using FFT...
<Set_Hamiltonian>  Hamiltonian matrix for VNA+dVH+Vxc...
<Band>  Solving the eigenvalue problem...
 KGrids1:  -0.43750  -0.31250  -0.18750  -0.06250   0.06250   0.18750   0.31250   0.43750 
 KGrids2:  -0.43750  -0.31250  -0.18750  -0.06250   0.06250   0.18750   0.31250   0.43750 
 KGrids3:   0.00000 
<Band_DFT>  Eigen, time=13.506116
<Band_DFT>  DM, time=0.000000
    1    C  MulP   2.0003  2.0003 sum   4.0006
    2    C  MulP   1.9997  1.9997 sum   3.9995
    3    C  MulP   1.9996  1.9996 sum   3.9991
    4    C  MulP   1.9998  1.9998 sum   3.9996
    5    C  MulP   1.9995  1.9995 sum   3.9991
    6    C  MulP   1.9996  1.9996 sum   3.9992
    7    C  MulP   2.0000  2.0000 sum   4.0000
    8    C  MulP   1.9998  1.9998 sum   3.9996
    9    C  MulP   2.0005  2.0005 sum   4.0011
   10    C  MulP   2.0002  2.0002 sum   4.0004
   11    C  MulP   1.9977  1.9977 sum   3.9954
   12    C  MulP   1.9989  1.9989 sum   3.9978
   13    C  MulP   1.9998  1.9998 sum   3.9995
   14    C  MulP   1.9997  1.9997 sum   3.9995
   15    C  MulP   1.9996  1.9996 sum   3.9992
   16    C  MulP   2.0000  2.0000 sum   4.0000
   17    C  MulP   1.9992  1.9992 sum   3.9984
   18    C  MulP   1.9990  1.9990 sum   3.9979
   19    C  MulP   1.9816  1.9816 sum   3.9633
   20    C  MulP   1.9787  1.9787 sum   3.9575
     ..........
     ......

 Sum of MulP: up   =   244.00000 down          =   244.00000
              total=   488.00000 ideal(neutral)=   488.00000
<DFT>  Total Spin Moment (muB) =  0.000000000000
<DFT>  Mixing_weight= 0.030000000000
<DFT>  Uele   = -234.230196570596  dUele     =   0.138746549847
<DFT>  NormRD =    0.157721985632  Criterion =   0.000000010000

******************* MD= 1  SCF=20 *******************
<Poisson>  Poisson's equation using FFT...
<Set_Hamiltonian>  Hamiltonian matrix for VNA+dVH+Vxc...
<Band>  Solving the eigenvalue problem...
 KGrids1:  -0.43750  -0.31250  -0.18750  -0.06250   0.06250   0.18750   0.31250   0.43750 
 KGrids2:  -0.43750  -0.31250  -0.18750  -0.06250   0.06250   0.18750   0.31250   0.43750 
 KGrids3:   0.00000 
<Band_DFT>  Eigen, time=13.474372
<Band_DFT>  DM, time=0.000000
    1    C  MulP   1.9997  1.9997 sum   3.9993
    2    C  MulP   1.9991  1.9991 sum   3.9982
    3    C  MulP   1.9995  1.9995 sum   3.9990
    4    C  MulP   1.9997  1.9997 sum   3.9995
    5    C  MulP   1.9994  1.9994 sum   3.9989
    6    C  MulP   1.9995  1.9995 sum   3.9990
    7    C  MulP   1.9996  1.9996 sum   3.9992
    8    C  MulP   1.9989  1.9989 sum   3.9978
    9    C  MulP   1.9998  1.9998 sum   3.9996
   10    C  MulP   1.9987  1.9987 sum   3.9974
   11    C  MulP   1.9975  1.9975 sum   3.9950
   12    C  MulP   1.9993  1.9993 sum   3.9986
   13    C  MulP   2.0002  2.0002 sum   4.0004
   14    C  MulP   1.9998  1.9998 sum   3.9996
   15    C  MulP   1.9992  1.9992 sum   3.9984
   16    C  MulP   1.9996  1.9996 sum   3.9992
   17    C  MulP   1.9986  1.9986 sum   3.9972
   18    C  MulP   1.9976  1.9976 sum   3.9953
   19    C  MulP   1.9796  1.9796 sum   3.9592
   20    C  MulP   1.9798  1.9798 sum   3.9597
     ..........
     ......

 Sum of MulP: up   =   244.00000 down          =   244.00000
              total=   488.00000 ideal(neutral)=   488.00000
<DFT>  Total Spin Moment (muB) =  0.000000000000
<DFT>  Mixing_weight= 0.030000000000
<DFT>  Uele   = -234.252271183226  dUele     =   0.022074612631
<DFT>  NormRD =    0.061204781506  Criterion =   0.000000010000

******************* MD= 1  SCF=21 *******************
<Poisson>  Poisson's equation using FFT...
<Set_Hamiltonian>  Hamiltonian matrix for VNA+dVH+Vxc...
<Band>  Solving the eigenvalue problem...
 KGrids1:  -0.43750  -0.31250  -0.18750  -0.06250   0.06250   0.18750   0.31250   0.43750 
 KGrids2:  -0.43750  -0.31250  -0.18750  -0.06250   0.06250   0.18750   0.31250   0.43750 
 KGrids3:   0.00000 
<Band_DFT>  Eigen, time=13.471587
<Band_DFT>  DM, time=0.000000
    1    C  MulP   2.0000  2.0000 sum   4.0001
    2    C  MulP   1.9993  1.9993 sum   3.9985
    3    C  MulP   1.9991  1.9991 sum   3.9982
    4    C  MulP   1.9992  1.9992 sum   3.9984
    5    C  MulP   1.9988  1.9988 sum   3.9976
    6    C  MulP   1.9993  1.9993 sum   3.9986
    7    C  MulP   1.9998  1.9998 sum   3.9996
    8    C  MulP   1.9993  1.9993 sum   3.9985
    9    C  MulP   2.0002  2.0002 sum   4.0005
   10    C  MulP   1.9992  1.9992 sum   3.9984
   11    C  MulP   1.9974  1.9974 sum   3.9948
   12    C  MulP   1.9984  1.9984 sum   3.9969
   13    C  MulP   1.9995  1.9995 sum   3.9989
   14    C  MulP   1.9994  1.9994 sum   3.9987
   15    C  MulP   1.9989  1.9989 sum   3.9979
   16    C  MulP   1.9998  1.9998 sum   3.9996
   17    C  MulP   1.9985  1.9985 sum   3.9970
   18    C  MulP   1.9983  1.9983 sum   3.9966
   19    C  MulP   1.9795  1.9795 sum   3.9590
   20    C  MulP   1.9799  1.9799 sum   3.9598
     ..........
     ......

 Sum of MulP: up   =   244.00000 down          =   244.00000
              total=   488.00000 ideal(neutral)=   488.00000
<DFT>  Total Spin Moment (muB) =  0.000000000000
<DFT>  Mixing_weight= 0.030000000000
<DFT>  Uele   = -234.312606445457  dUele     =   0.060335262231
<DFT>  NormRD =    0.023499665126  Criterion =   0.000000010000

******************* MD= 1  SCF=22 *******************
<Poisson>  Poisson's equation using FFT...
<Set_Hamiltonian>  Hamiltonian matrix for VNA+dVH+Vxc...
<Band>  Solving the eigenvalue problem...
 KGrids1:  -0.43750  -0.31250  -0.18750  -0.06250   0.06250   0.18750   0.31250   0.43750 
 KGrids2:  -0.43750  -0.31250  -0.18750  -0.06250   0.06250   0.18750   0.31250   0.43750 
 KGrids3:   0.00000 
<Band_DFT>  Eigen, time=13.478337
<Band_DFT>  DM, time=0.000000
    1    C  MulP   1.9997  1.9997 sum   3.9994
    2    C  MulP   1.9990  1.9990 sum   3.9979
    3    C  MulP   1.9991  1.9991 sum   3.9982
    4    C  MulP   1.9994  1.9994 sum   3.9988
    5    C  MulP   1.9990  1.9990 sum   3.9979
    6    C  MulP   1.9993  1.9993 sum   3.9986
    7    C  MulP   1.9996  1.9996 sum   3.9991
    8    C  MulP   1.9988  1.9988 sum   3.9976
    9    C  MulP   1.9998  1.9998 sum   3.9997
   10    C  MulP   1.9989  1.9989 sum   3.9979
   11    C  MulP   1.9974  1.9974 sum   3.9947
   12    C  MulP   1.9987  1.9987 sum   3.9973
   13    C  MulP   1.9997  1.9997 sum   3.9994
   14    C  MulP   1.9995  1.9995 sum   3.9990
   15    C  MulP   1.9989  1.9989 sum   3.9977
   16    C  MulP   1.9996  1.9996 sum   3.9991
   17    C  MulP   1.9983  1.9983 sum   3.9966
   18    C  MulP   1.9975  1.9975 sum   3.9949
   19    C  MulP   1.9803  1.9803 sum   3.9606
   20    C  MulP   1.9805  1.9805 sum   3.9611
     ..........
     ......

 Sum of MulP: up   =   244.00000 down          =   244.00000
              total=   488.00000 ideal(neutral)=   488.00000
<DFT>  Total Spin Moment (muB) =  0.000000000000
<DFT>  Mixing_weight= 0.030000000000
<DFT>  Uele   = -234.327107401081  dUele     =   0.014500955624
<DFT>  NormRD =    0.086795815795  Criterion =   0.000000010000

******************* MD= 1  SCF=23 *******************
<Poisson>  Poisson's equation using FFT...
<Set_Hamiltonian>  Hamiltonian matrix for VNA+dVH+Vxc...
<Band>  Solving the eigenvalue problem...
 KGrids1:  -0.43750  -0.31250  -0.18750  -0.06250   0.06250   0.18750   0.31250   0.43750 
 KGrids2:  -0.43750  -0.31250  -0.18750  -0.06250   0.06250   0.18750   0.31250   0.43750 
 KGrids3:   0.00000 
<Band_DFT>  Eigen, time=13.483027
<Band_DFT>  DM, time=0.000001
    1    C  MulP   1.9995  1.9995 sum   3.9990
    2    C  MulP   1.9988  1.9988 sum   3.9977
    3    C  MulP   1.9991  1.9991 sum   3.9983
    4    C  MulP   1.9995  1.9995 sum   3.9990
    5    C  MulP   1.9990  1.9990 sum   3.9981
    6    C  MulP   1.9993  1.9993 sum   3.9986
    7    C  MulP   1.9994  1.9994 sum   3.9989
    8    C  MulP   1.9986  1.9986 sum   3.9972
    9    C  MulP   1.9997  1.9997 sum   3.9994
   10    C  MulP   1.9986  1.9986 sum   3.9972
   11    C  MulP   1.9974  1.9974 sum   3.9948
   12    C  MulP   1.9986  1.9986 sum   3.9972
   13    C  MulP   1.9999  1.9999 sum   3.9997
   14    C  MulP   1.9996  1.9996 sum   3.9992
   15    C  MulP   1.9989  1.9989 sum   3.9977
   16    C  MulP   1.9994  1.9994 sum   3.9989
   17    C  MulP   1.9982  1.9982 sum   3.9965
   18    C  MulP   1.9980  1.9980 sum   3.9961
   19    C  MulP   1.9799  1.9799 sum   3.9597
   20    C  MulP   1.9796  1.9796 sum   3.9592
     ..........
     ......

 Sum of MulP: up   =   244.00000 down          =   244.00000
              total=   488.00000 ideal(neutral)=   488.00000
<DFT>  Total Spin Moment (muB) =  0.000000000000
<DFT>  Mixing_weight= 0.030000000000
<DFT>  Uele   = -234.335886745982  dUele     =   0.008779344901
<DFT>  NormRD =    0.008952255337  Criterion =   0.000000010000

******************* MD= 1  SCF=24 *******************
<Poisson>  Poisson's equation using FFT...
<Set_Hamiltonian>  Hamiltonian matrix for VNA+dVH+Vxc...
<Band>  Solving the eigenvalue problem...
 KGrids1:  -0.43750  -0.31250  -0.18750  -0.06250   0.06250   0.18750   0.31250   0.43750 
 KGrids2:  -0.43750  -0.31250  -0.18750  -0.06250   0.06250   0.18750   0.31250   0.43750 
 KGrids3:   0.00000 
<Band_DFT>  Eigen, time=13.480779
<Band_DFT>  DM, time=0.000000
    1    C  MulP   1.9997  1.9997 sum   3.9994
    2    C  MulP   1.9989  1.9989 sum   3.9979
    3    C  MulP   1.9991  1.9991 sum   3.9983
    4    C  MulP   1.9994  1.9994 sum   3.9988
    5    C  MulP   1.9989  1.9989 sum   3.9978
    6    C  MulP   1.9993  1.9993 sum   3.9986
    7    C  MulP   1.9996  1.9996 sum   3.9991
    8    C  MulP   1.9988  1.9988 sum   3.9976
    9    C  MulP   1.9998  1.9998 sum   3.9996
   10    C  MulP   1.9986  1.9986 sum   3.9972
   11    C  MulP   1.9975  1.9975 sum   3.9949
   12    C  MulP   1.9987  1.9987 sum   3.9973
   13    C  MulP   1.9998  1.9998 sum   3.9996
   14    C  MulP   1.9995  1.9995 sum   3.9990
   15    C  MulP   1.9988  1.9988 sum   3.9977
   16    C  MulP   1.9996  1.9996 sum   3.9991
   17    C  MulP   1.9983  1.9983 sum   3.9966
   18    C  MulP   1.9979  1.9979 sum   3.9959
   19    C  MulP   1.9798  1.9798 sum   3.9596
   20    C  MulP   1.9796  1.9796 sum   3.9592
     ..........
     ......

 Sum of MulP: up   =   244.00000 down          =   244.00000
              total=   488.00000 ideal(neutral)=   488.00000
<DFT>  Total Spin Moment (muB) =  0.000000000000
<DFT>  Mixing_weight= 0.030000000000
<DFT>  Uele   = -234.344834224677  dUele     =   0.008947478695
<DFT>  NormRD =    0.004125716279  Criterion =   0.000000010000

******************* MD= 1  SCF=25 *******************
<Poisson>  Poisson's equation using FFT...
<Set_Hamiltonian>  Hamiltonian matrix for VNA+dVH+Vxc...
<Band>  Solving the eigenvalue problem...
 KGrids1:  -0.43750  -0.31250  -0.18750  -0.06250   0.06250   0.18750   0.31250   0.43750 
 KGrids2:  -0.43750  -0.31250  -0.18750  -0.06250   0.06250   0.18750   0.31250   0.43750 
 KGrids3:   0.00000 
<Band_DFT>  Eigen, time=13.493784
<Band_DFT>  DM, time=0.000001
    1    C  MulP   1.9997  1.9997 sum   3.9993
    2    C  MulP   1.9989  1.9989 sum   3.9979
    3    C  MulP   1.9991  1.9991 sum   3.9983
    4    C  MulP   1.9995  1.9995 sum   3.9989
    5    C  MulP   1.9990  1.9990 sum   3.9979
    6    C  MulP   1.9993  1.9993 sum   3.9986
    7    C  MulP   1.9995  1.9995 sum   3.9990
    8    C  MulP   1.9987  1.9987 sum   3.9975
    9    C  MulP   1.9998  1.9998 sum   3.9997
   10    C  MulP   1.9987  1.9987 sum   3.9974
   11    C  MulP   1.9974  1.9974 sum   3.9949
   12    C  MulP   1.9986  1.9986 sum   3.9972
   13    C  MulP   1.9998  1.9998 sum   3.9996
   14    C  MulP   1.9995  1.9995 sum   3.9991
   15    C  MulP   1.9989  1.9989 sum   3.9977
   16    C  MulP   1.9995  1.9995 sum   3.9990
   17    C  MulP   1.9983  1.9983 sum   3.9966
   18    C  MulP   1.9980  1.9980 sum   3.9960
   19    C  MulP   1.9798  1.9798 sum   3.9596
   20    C  MulP   1.9796  1.9796 sum   3.9593
     ..........
     ......

 Sum of MulP: up   =   244.00000 down          =   244.00000
              total=   488.00000 ideal(neutral)=   488.00000
<DFT>  Total Spin Moment (muB) =  0.000000000000
<DFT>  Mixing_weight= 0.030000000000
<DFT>  Uele   = -234.348378334584  dUele     =   0.003544109907
<DFT>  NormRD =    0.002322635245  Criterion =   0.000000010000

******************* MD= 1  SCF=26 *******************
<Poisson>  Poisson's equation using FFT...
<Set_Hamiltonian>  Hamiltonian matrix for VNA+dVH+Vxc...
<Band>  Solving the eigenvalue problem...
 KGrids1:  -0.43750  -0.31250  -0.18750  -0.06250   0.06250   0.18750   0.31250   0.43750 
 KGrids2:  -0.43750  -0.31250  -0.18750  -0.06250   0.06250   0.18750   0.31250   0.43750 
 KGrids3:   0.00000 
<Band_DFT>  Eigen, time=13.489248
<Band_DFT>  DM, time=0.000000
    1    C  MulP   1.9997  1.9997 sum   3.9993
    2    C  MulP   1.9989  1.9989 sum   3.9979
    3    C  MulP   1.9992  1.9992 sum   3.9983
    4    C  MulP   1.9994  1.9994 sum   3.9989
    5    C  MulP   1.9990  1.9990 sum   3.9979
    6    C  MulP   1.9993  1.9993 sum   3.9986
    7    C  MulP   1.9995  1.9995 sum   3.9991
    8    C  MulP   1.9988  1.9988 sum   3.9975
    9    C  MulP   1.9998  1.9998 sum   3.9996
   10    C  MulP   1.9987  1.9987 sum   3.9973
   11    C  MulP   1.9974  1.9974 sum   3.9949
   12    C  MulP   1.9986  1.9986 sum   3.9973
   13    C  MulP   1.9998  1.9998 sum   3.9997
   14    C  MulP   1.9995  1.9995 sum   3.9991
   15    C  MulP   1.9989  1.9989 sum   3.9977
   16    C  MulP   1.9995  1.9995 sum   3.9991
   17    C  MulP   1.9983  1.9983 sum   3.9966
   18    C  MulP   1.9980  1.9980 sum   3.9960
   19    C  MulP   1.9798  1.9798 sum   3.9596
   20    C  MulP   1.9796  1.9796 sum   3.9592
     ..........
     ......

 Sum of MulP: up   =   244.00000 down          =   244.00000
              total=   488.00000 ideal(neutral)=   488.00000
<DFT>  Total Spin Moment (muB) =  0.000000000000
<DFT>  Mixing_weight= 0.030000000000
<DFT>  Uele   = -234.350927405634  dUele     =   0.002549071050
<DFT>  NormRD =    0.001700860725  Criterion =   0.000000010000

******************* MD= 1  SCF=27 *******************
<Poisson>  Poisson's equation using FFT...
<Set_Hamiltonian>  Hamiltonian matrix for VNA+dVH+Vxc...
<Band>  Solving the eigenvalue problem...
 KGrids1:  -0.43750  -0.31250  -0.18750  -0.06250   0.06250   0.18750   0.31250   0.43750 
 KGrids2:  -0.43750  -0.31250  -0.18750  -0.06250   0.06250   0.18750   0.31250   0.43750 
 KGrids3:   0.00000 
<Band_DFT>  Eigen, time=13.488248
<Band_DFT>  DM, time=0.000000
    1    C  MulP   1.9997  1.9997 sum   3.9993
    2    C  MulP   1.9990  1.9990 sum   3.9979
    3    C  MulP   1.9992  1.9992 sum   3.9983
    4    C  MulP   1.9994  1.9994 sum   3.9989
    5    C  MulP   1.9990  1.9990 sum   3.9979
    6    C  MulP   1.9993  1.9993 sum   3.9986
    7    C  MulP   1.9995  1.9995 sum   3.9991
    8    C  MulP   1.9988  1.9988 sum   3.9975
    9    C  MulP   1.9998  1.9998 sum   3.9996
   10    C  MulP   1.9987  1.9987 sum   3.9973
   11    C  MulP   1.9974  1.9974 sum   3.9949
   12    C  MulP   1.9987  1.9987 sum   3.9973
   13    C  MulP   1.9998  1.9998 sum   3.9997
   14    C  MulP   1.9995  1.9995 sum   3.9991
   15    C  MulP   1.9989  1.9989 sum   3.9977
   16    C  MulP   1.9995  1.9995 sum   3.9991
   17    C  MulP   1.9983  1.9983 sum   3.9966
   18    C  MulP   1.9980  1.9980 sum   3.9960
   19    C  MulP   1.9798  1.9798 sum   3.9596
   20    C  MulP   1.9796  1.9796 sum   3.9593
     ..........
     ......

 Sum of MulP: up   =   244.00000 down          =   244.00000
              total=   488.00000 ideal(neutral)=   488.00000
<DFT>  Total Spin Moment (muB) =  0.000000000000
<DFT>  Mixing_weight= 0.030000000000
<DFT>  Uele   = -234.351380575666  dUele     =   0.000453170032
<DFT>  NormRD =    0.001259357201  Criterion =   0.000000010000

******************* MD= 1  SCF=28 *******************
<Poisson>  Poisson's equation using FFT...
<Set_Hamiltonian>  Hamiltonian matrix for VNA+dVH+Vxc...
<Band>  Solving the eigenvalue problem...
 KGrids1:  -0.43750  -0.31250  -0.18750  -0.06250   0.06250   0.18750   0.31250   0.43750 
 KGrids2:  -0.43750  -0.31250  -0.18750  -0.06250   0.06250   0.18750   0.31250   0.43750 
 KGrids3:   0.00000 
<Band_DFT>  Eigen, time=13.499497
<Band_DFT>  DM, time=0.000000
    1    C  MulP   1.9997  1.9997 sum   3.9993
    2    C  MulP   1.9990  1.9990 sum   3.9979
    3    C  MulP   1.9992  1.9992 sum   3.9983
    4    C  MulP   1.9995  1.9995 sum   3.9989
    5    C  MulP   1.9990  1.9990 sum   3.9980
    6    C  MulP   1.9993  1.9993 sum   3.9986
    7    C  MulP   1.9995  1.9995 sum   3.9991
    8    C  MulP   1.9988  1.9988 sum   3.9975
    9    C  MulP   1.9998  1.9998 sum   3.9997
   10    C  MulP   1.9987  1.9987 sum   3.9973
   11    C  MulP   1.9974  1.9974 sum   3.9949
   12    C  MulP   1.9987  1.9987 sum   3.9973
   13    C  MulP   1.9998  1.9998 sum   3.9996
   14    C  MulP   1.9995  1.9995 sum   3.9991
   15    C  MulP   1.9989  1.9989 sum   3.9978
   16    C  MulP   1.9995  1.9995 sum   3.9991
   17    C  MulP   1.9983  1.9983 sum   3.9966
   18    C  MulP   1.9980  1.9980 sum   3.9960
   19    C  MulP   1.9798  1.9798 sum   3.9596
   20    C  MulP   1.9796  1.9796 sum   3.9592
     ..........
     ......

 Sum of MulP: up   =   244.00000 down          =   244.00000
              total=   488.00000 ideal(neutral)=   488.00000
<DFT>  Total Spin Moment (muB) =  0.000000000000
<DFT>  Mixing_weight= 0.030000000000
<DFT>  Uele   = -234.352350075049  dUele     =   0.000969499383
<DFT>  NormRD =    0.001013664317  Criterion =   0.000000010000

******************* MD= 1  SCF=29 *******************
<Poisson>  Poisson's equation using FFT...
<Set_Hamiltonian>  Hamiltonian matrix for VNA+dVH+Vxc...
<Band>  Solving the eigenvalue problem...
 KGrids1:  -0.43750  -0.31250  -0.18750  -0.06250   0.06250   0.18750   0.31250   0.43750 
 KGrids2:  -0.43750  -0.31250  -0.18750  -0.06250   0.06250   0.18750   0.31250   0.43750 
 KGrids3:   0.00000 
<Band_DFT>  Eigen, time=13.499491
<Band_DFT>  DM, time=0.000001
    1    C  MulP   1.9997  1.9997 sum   3.9993
    2    C  MulP   1.9990  1.9990 sum   3.9979
    3    C  MulP   1.9992  1.9992 sum   3.9983
    4    C  MulP   1.9995  1.9995 sum   3.9989
    5    C  MulP   1.9990  1.9990 sum   3.9980
    6    C  MulP   1.9993  1.9993 sum   3.9986
    7    C  MulP   1.9995  1.9995 sum   3.9991
    8    C  MulP   1.9988  1.9988 sum   3.9975
    9    C  MulP   1.9998  1.9998 sum   3.9997
   10    C  MulP   1.9987  1.9987 sum   3.9973
   11    C  MulP   1.9974  1.9974 sum   3.9949
   12    C  MulP   1.9987  1.9987 sum   3.9973
   13    C  MulP   1.9998  1.9998 sum   3.9996
   14    C  MulP   1.9995  1.9995 sum   3.9991
   15    C  MulP   1.9989  1.9989 sum   3.9978
   16    C  MulP   1.9995  1.9995 sum   3.9991
   17    C  MulP   1.9983  1.9983 sum   3.9966
   18    C  MulP   1.9980  1.9980 sum   3.9960
   19    C  MulP   1.9798  1.9798 sum   3.9596
   20    C  MulP   1.9796  1.9796 sum   3.9592
     ..........
     ......

 Sum of MulP: up   =   244.00000 down          =   244.00000
              total=   488.00000 ideal(neutral)=   488.00000
<DFT>  Total Spin Moment (muB) =  0.000000000000
<DFT>  Mixing_weight= 0.030000000000
<DFT>  Uele   = -234.352565715944  dUele     =   0.000215640895
<DFT>  NormRD =    0.000662030398  Criterion =   0.000000010000

******************* MD= 1  SCF=30 *******************
<Poisson>  Poisson's equation using FFT...
<Set_Hamiltonian>  Hamiltonian matrix for VNA+dVH+Vxc...
<Band>  Solving the eigenvalue problem...
 KGrids1:  -0.43750  -0.31250  -0.18750  -0.06250   0.06250   0.18750   0.31250   0.43750 
 KGrids2:  -0.43750  -0.31250  -0.18750  -0.06250   0.06250   0.18750   0.31250   0.43750 
 KGrids3:   0.00000 
<Band_DFT>  Eigen, time=13.497849
<Band_DFT>  DM, time=0.000000
    1    C  MulP   1.9997  1.9997 sum   3.9993
    2    C  MulP   1.9990  1.9990 sum   3.9979
    3    C  MulP   1.9992  1.9992 sum   3.9983
    4    C  MulP   1.9995  1.9995 sum   3.9989
    5    C  MulP   1.9990  1.9990 sum   3.9980
    6    C  MulP   1.9993  1.9993 sum   3.9986
    7    C  MulP   1.9995  1.9995 sum   3.9991
    8    C  MulP   1.9988  1.9988 sum   3.9975
    9    C  MulP   1.9998  1.9998 sum   3.9997
   10    C  MulP   1.9987  1.9987 sum   3.9973
   11    C  MulP   1.9974  1.9974 sum   3.9949
   12    C  MulP   1.9987  1.9987 sum   3.9973
   13    C  MulP   1.9998  1.9998 sum   3.9996
   14    C  MulP   1.9995  1.9995 sum   3.9991
   15    C  MulP   1.9989  1.9989 sum   3.9978
   16    C  MulP   1.9995  1.9995 sum   3.9991
   17    C  MulP   1.9983  1.9983 sum   3.9966
   18    C  MulP   1.9980  1.9980 sum   3.9960
   19    C  MulP   1.9798  1.9798 sum   3.9596
   20    C  MulP   1.9796  1.9796 sum   3.9592
     ..........
     ......

 Sum of MulP: up   =   244.00000 down          =   244.00000
              total=   488.00000 ideal(neutral)=   488.00000
<DFT>  Total Spin Moment (muB) =  0.000000000000
<DFT>  Mixing_weight= 0.030000000000
<DFT>  Uele   = -234.352747707589  dUele     =   0.000181991645
<DFT>  NormRD =    0.000459092019  Criterion =   0.000000010000

******************* MD= 1  SCF=31 *******************
<Poisson>  Poisson's equation using FFT...
<Set_Hamiltonian>  Hamiltonian matrix for VNA+dVH+Vxc...
<Band>  Solving the eigenvalue problem...
 KGrids1:  -0.43750  -0.31250  -0.18750  -0.06250   0.06250   0.18750   0.31250   0.43750 
 KGrids2:  -0.43750  -0.31250  -0.18750  -0.06250   0.06250   0.18750   0.31250   0.43750 
 KGrids3:   0.00000 
<Band_DFT>  Eigen, time=13.553502
<Band_DFT>  DM, time=0.000000
    1    C  MulP   1.9997  1.9997 sum   3.9993
    2    C  MulP   1.9990  1.9990 sum   3.9979
    3    C  MulP   1.9992  1.9992 sum   3.9983
    4    C  MulP   1.9995  1.9995 sum   3.9989
    5    C  MulP   1.9990  1.9990 sum   3.9980
    6    C  MulP   1.9993  1.9993 sum   3.9986
    7    C  MulP   1.9995  1.9995 sum   3.9991
    8    C  MulP   1.9988  1.9988 sum   3.9975
    9    C  MulP   1.9998  1.9998 sum   3.9997
   10    C  MulP   1.9987  1.9987 sum   3.9973
   11    C  MulP   1.9974  1.9974 sum   3.9949
   12    C  MulP   1.9987  1.9987 sum   3.9973
   13    C  MulP   1.9998  1.9998 sum   3.9996
   14    C  MulP   1.9995  1.9995 sum   3.9991
   15    C  MulP   1.9989  1.9989 sum   3.9978
   16    C  MulP   1.9995  1.9995 sum   3.9991
   17    C  MulP   1.9983  1.9983 sum   3.9966
   18    C  MulP   1.9980  1.9980 sum   3.9960
   19    C  MulP   1.9798  1.9798 sum   3.9596
   20    C  MulP   1.9796  1.9796 sum   3.9593
     ..........
     ......

 Sum of MulP: up   =   244.00000 down          =   244.00000
              total=   488.00000 ideal(neutral)=   488.00000
<DFT>  Total Spin Moment (muB) =  0.000000000000
<DFT>  Mixing_weight= 0.030000000000
<DFT>  Uele   = -234.353019783731  dUele     =   0.000272076142
<DFT>  NormRD =    0.000072273853  Criterion =   0.000000010000

******************* MD= 1  SCF=32 *******************
<Poisson>  Poisson's equation using FFT...
<Set_Hamiltonian>  Hamiltonian matrix for VNA+dVH+Vxc...
<Band>  Solving the eigenvalue problem...
 KGrids1:  -0.43750  -0.31250  -0.18750  -0.06250   0.06250   0.18750   0.31250   0.43750 
 KGrids2:  -0.43750  -0.31250  -0.18750  -0.06250   0.06250   0.18750   0.31250   0.43750 
 KGrids3:   0.00000 
<Band_DFT>  Eigen, time=13.493537
<Band_DFT>  DM, time=0.000001
    1    C  MulP   1.9997  1.9997 sum   3.9993
    2    C  MulP   1.9990  1.9990 sum   3.9979
    3    C  MulP   1.9992  1.9992 sum   3.9983
    4    C  MulP   1.9995  1.9995 sum   3.9989
    5    C  MulP   1.9990  1.9990 sum   3.9980
    6    C  MulP   1.9993  1.9993 sum   3.9986
    7    C  MulP   1.9995  1.9995 sum   3.9991
    8    C  MulP   1.9988  1.9988 sum   3.9975
    9    C  MulP   1.9998  1.9998 sum   3.9997
   10    C  MulP   1.9987  1.9987 sum   3.9973
   11    C  MulP   1.9974  1.9974 sum   3.9949
   12    C  MulP   1.9987  1.9987 sum   3.9973
   13    C  MulP   1.9998  1.9998 sum   3.9996
   14    C  MulP   1.9995  1.9995 sum   3.9991
   15    C  MulP   1.9989  1.9989 sum   3.9978
   16    C  MulP   1.9995  1.9995 sum   3.9991
   17    C  MulP   1.9983  1.9983 sum   3.9966
   18    C  MulP   1.9980  1.9980 sum   3.9960
   19    C  MulP   1.9798  1.9798 sum   3.9596
   20    C  MulP   1.9796  1.9796 sum   3.9592
     ..........
     ......

 Sum of MulP: up   =   244.00000 down          =   244.00000
              total=   488.00000 ideal(neutral)=   488.00000
<DFT>  Total Spin Moment (muB) =  0.000000000000
<DFT>  Mixing_weight= 0.030000000000
<DFT>  Uele   = -234.353191556262  dUele     =   0.000171772531
<DFT>  NormRD =    0.000102982202  Criterion =   0.000000010000

******************* MD= 1  SCF=33 *******************
<Poisson>  Poisson's equation using FFT...
<Set_Hamiltonian>  Hamiltonian matrix for VNA+dVH+Vxc...
<Band>  Solving the eigenvalue problem...
 KGrids1:  -0.43750  -0.31250  -0.18750  -0.06250   0.06250   0.18750   0.31250   0.43750 
 KGrids2:  -0.43750  -0.31250  -0.18750  -0.06250   0.06250   0.18750   0.31250   0.43750 
 KGrids3:   0.00000 
<Band_DFT>  Eigen, time=13.513412
<Band_DFT>  DM, time=0.000000
    1    C  MulP   1.9997  1.9997 sum   3.9993
    2    C  MulP   1.9990  1.9990 sum   3.9979
    3    C  MulP   1.9992  1.9992 sum   3.9983
    4    C  MulP   1.9995  1.9995 sum   3.9989
    5    C  MulP   1.9990  1.9990 sum   3.9980
    6    C  MulP   1.9993  1.9993 sum   3.9986
    7    C  MulP   1.9995  1.9995 sum   3.9991
    8    C  MulP   1.9988  1.9988 sum   3.9975
    9    C  MulP   1.9998  1.9998 sum   3.9997
   10    C  MulP   1.9987  1.9987 sum   3.9973
   11    C  MulP   1.9974  1.9974 sum   3.9949
   12    C  MulP   1.9987  1.9987 sum   3.9973
   13    C  MulP   1.9998  1.9998 sum   3.9996
   14    C  MulP   1.9995  1.9995 sum   3.9991
   15    C  MulP   1.9989  1.9989 sum   3.9978
   16    C  MulP   1.9995  1.9995 sum   3.9991
   17    C  MulP   1.9983  1.9983 sum   3.9966
   18    C  MulP   1.9980  1.9980 sum   3.9960
   19    C  MulP   1.9798  1.9798 sum   3.9596
   20    C  MulP   1.9796  1.9796 sum   3.9592
     ..........
     ......

 Sum of MulP: up   =   244.00000 down          =   244.00000
              total=   488.00000 ideal(neutral)=   488.00000
<DFT>  Total Spin Moment (muB) =  0.000000000000
<DFT>  Mixing_weight= 0.030000000000
<DFT>  Uele   = -234.353225040522  dUele     =   0.000033484259
<DFT>  NormRD =    0.000068320929  Criterion =   0.000000010000

******************* MD= 1  SCF=34 *******************
<Poisson>  Poisson's equation using FFT...
<Set_Hamiltonian>  Hamiltonian matrix for VNA+dVH+Vxc...
<Band>  Solving the eigenvalue problem...
 KGrids1:  -0.43750  -0.31250  -0.18750  -0.06250   0.06250   0.18750   0.31250   0.43750 
 KGrids2:  -0.43750  -0.31250  -0.18750  -0.06250   0.06250   0.18750   0.31250   0.43750 
 KGrids3:   0.00000 
<Band_DFT>  Eigen, time=13.493343
<Band_DFT>  DM, time=0.000000
    1    C  MulP   1.9997  1.9997 sum   3.9993
    2    C  MulP   1.9990  1.9990 sum   3.9979
    3    C  MulP   1.9992  1.9992 sum   3.9983
    4    C  MulP   1.9995  1.9995 sum   3.9989
    5    C  MulP   1.9990  1.9990 sum   3.9980
    6    C  MulP   1.9993  1.9993 sum   3.9986
    7    C  MulP   1.9995  1.9995 sum   3.9991
    8    C  MulP   1.9988  1.9988 sum   3.9975
    9    C  MulP   1.9998  1.9998 sum   3.9997
   10    C  MulP   1.9987  1.9987 sum   3.9973
   11    C  MulP   1.9974  1.9974 sum   3.9949
   12    C  MulP   1.9987  1.9987 sum   3.9973
   13    C  MulP   1.9998  1.9998 sum   3.9996
   14    C  MulP   1.9995  1.9995 sum   3.9991
   15    C  MulP   1.9989  1.9989 sum   3.9978
   16    C  MulP   1.9995  1.9995 sum   3.9991
   17    C  MulP   1.9983  1.9983 sum   3.9966
   18    C  MulP   1.9980  1.9980 sum   3.9960
   19    C  MulP   1.9798  1.9798 sum   3.9596
   20    C  MulP   1.9796  1.9796 sum   3.9592
     ..........
     ......

 Sum of MulP: up   =   244.00000 down          =   244.00000
              total=   488.00000 ideal(neutral)=   488.00000
<DFT>  Total Spin Moment (muB) =  0.000000000000
<DFT>  Mixing_weight= 0.030000000000
<DFT>  Uele   = -234.353338725748  dUele     =   0.000113685227
<DFT>  NormRD =    0.000012293997  Criterion =   0.000000010000

******************* MD= 1  SCF=35 *******************
<Poisson>  Poisson's equation using FFT...
<Set_Hamiltonian>  Hamiltonian matrix for VNA+dVH+Vxc...
<Band>  Solving the eigenvalue problem...
 KGrids1:  -0.43750  -0.31250  -0.18750  -0.06250   0.06250   0.18750   0.31250   0.43750 
 KGrids2:  -0.43750  -0.31250  -0.18750  -0.06250   0.06250   0.18750   0.31250   0.43750 
 KGrids3:   0.00000 
<Band_DFT>  Eigen, time=13.508263
<Band_DFT>  DM, time=0.000000
    1    C  MulP   1.9997  1.9997 sum   3.9993
    2    C  MulP   1.9990  1.9990 sum   3.9979
    3    C  MulP   1.9992  1.9992 sum   3.9983
    4    C  MulP   1.9995  1.9995 sum   3.9989
    5    C  MulP   1.9990  1.9990 sum   3.9980
    6    C  MulP   1.9993  1.9993 sum   3.9986
    7    C  MulP   1.9995  1.9995 sum   3.9991
    8    C  MulP   1.9988  1.9988 sum   3.9975
    9    C  MulP   1.9998  1.9998 sum   3.9997
   10    C  MulP   1.9987  1.9987 sum   3.9973
   11    C  MulP   1.9974  1.9974 sum   3.9949
   12    C  MulP   1.9987  1.9987 sum   3.9973
   13    C  MulP   1.9998  1.9998 sum   3.9996
   14    C  MulP   1.9995  1.9995 sum   3.9991
   15    C  MulP   1.9989  1.9989 sum   3.9978
   16    C  MulP   1.9995  1.9995 sum   3.9991
   17    C  MulP   1.9983  1.9983 sum   3.9966
   18    C  MulP   1.9980  1.9980 sum   3.9960
   19    C  MulP   1.9798  1.9798 sum   3.9596
   20    C  MulP   1.9796  1.9796 sum   3.9592
     ..........
     ......

 Sum of MulP: up   =   244.00000 down          =   244.00000
              total=   488.00000 ideal(neutral)=   488.00000
<DFT>  Total Spin Moment (muB) =  0.000000000000
<DFT>  Mixing_weight= 0.030000000000
<DFT>  Uele   = -234.353382027543  dUele     =   0.000043301795
<DFT>  NormRD =    0.000011949083  Criterion =   0.000000010000

******************* MD= 1  SCF=36 *******************
<Poisson>  Poisson's equation using FFT...
<Set_Hamiltonian>  Hamiltonian matrix for VNA+dVH+Vxc...
<Band>  Solving the eigenvalue problem...
 KGrids1:  -0.43750  -0.31250  -0.18750  -0.06250   0.06250   0.18750   0.31250   0.43750 
 KGrids2:  -0.43750  -0.31250  -0.18750  -0.06250   0.06250   0.18750   0.31250   0.43750 
 KGrids3:   0.00000 
<Band_DFT>  Eigen, time=13.562532
<Band_DFT>  DM, time=0.000001
    1    C  MulP   1.9997  1.9997 sum   3.9993
    2    C  MulP   1.9990  1.9990 sum   3.9979
    3    C  MulP   1.9992  1.9992 sum   3.9983
    4    C  MulP   1.9995  1.9995 sum   3.9989
    5    C  MulP   1.9990  1.9990 sum   3.9980
    6    C  MulP   1.9993  1.9993 sum   3.9986
    7    C  MulP   1.9995  1.9995 sum   3.9991
    8    C  MulP   1.9988  1.9988 sum   3.9975
    9    C  MulP   1.9998  1.9998 sum   3.9997
   10    C  MulP   1.9987  1.9987 sum   3.9973
   11    C  MulP   1.9974  1.9974 sum   3.9949
   12    C  MulP   1.9987  1.9987 sum   3.9973
   13    C  MulP   1.9998  1.9998 sum   3.9996
   14    C  MulP   1.9995  1.9995 sum   3.9991
   15    C  MulP   1.9989  1.9989 sum   3.9978
   16    C  MulP   1.9995  1.9995 sum   3.9991
   17    C  MulP   1.9983  1.9983 sum   3.9966
   18    C  MulP   1.9980  1.9980 sum   3.9960
   19    C  MulP   1.9798  1.9798 sum   3.9596
   20    C  MulP   1.9796  1.9796 sum   3.9592
     ..........
     ......

 Sum of MulP: up   =   244.00000 down          =   244.00000
              total=   488.00000 ideal(neutral)=   488.00000
<DFT>  Total Spin Moment (muB) =  0.000000000000
<DFT>  Mixing_weight= 0.030000000000
<DFT>  Uele   = -234.353389941887  dUele     =   0.000007914345
<DFT>  NormRD =    0.000009965570  Criterion =   0.000000010000

******************* MD= 1  SCF=37 *******************
<Poisson>  Poisson's equation using FFT...
<Set_Hamiltonian>  Hamiltonian matrix for VNA+dVH+Vxc...
<Band>  Solving the eigenvalue problem...
 KGrids1:  -0.43750  -0.31250  -0.18750  -0.06250   0.06250   0.18750   0.31250   0.43750 
 KGrids2:  -0.43750  -0.31250  -0.18750  -0.06250   0.06250   0.18750   0.31250   0.43750 
 KGrids3:   0.00000 
<Band_DFT>  Eigen, time=13.548768
<Band_DFT>  DM, time=0.000000
    1    C  MulP   1.9997  1.9997 sum   3.9993
    2    C  MulP   1.9990  1.9990 sum   3.9979
    3    C  MulP   1.9992  1.9992 sum   3.9983
    4    C  MulP   1.9995  1.9995 sum   3.9989
    5    C  MulP   1.9990  1.9990 sum   3.9980
    6    C  MulP   1.9993  1.9993 sum   3.9986
    7    C  MulP   1.9995  1.9995 sum   3.9991
    8    C  MulP   1.9988  1.9988 sum   3.9975
    9    C  MulP   1.9998  1.9998 sum   3.9997
   10    C  MulP   1.9987  1.9987 sum   3.9973
   11    C  MulP   1.9974  1.9974 sum   3.9949
   12    C  MulP   1.9987  1.9987 sum   3.9973
   13    C  MulP   1.9998  1.9998 sum   3.9996
   14    C  MulP   1.9995  1.9995 sum   3.9991
   15    C  MulP   1.9989  1.9989 sum   3.9978
   16    C  MulP   1.9995  1.9995 sum   3.9991
   17    C  MulP   1.9983  1.9983 sum   3.9966
   18    C  MulP   1.9980  1.9980 sum   3.9960
   19    C  MulP   1.9798  1.9798 sum   3.9596
   20    C  MulP   1.9796  1.9796 sum   3.9592
     ..........
     ......

 Sum of MulP: up   =   244.00000 down          =   244.00000
              total=   488.00000 ideal(neutral)=   488.00000
<DFT>  Total Spin Moment (muB) =  0.000000000000
<DFT>  Mixing_weight= 0.030000000000
<DFT>  Uele   = -234.353393870808  dUele     =   0.000003928920
<DFT>  NormRD =    0.000005404379  Criterion =   0.000000010000

******************* MD= 1  SCF=38 *******************
<Poisson>  Poisson's equation using FFT...
<Set_Hamiltonian>  Hamiltonian matrix for VNA+dVH+Vxc...
<Band>  Solving the eigenvalue problem...
 KGrids1:  -0.43750  -0.31250  -0.18750  -0.06250   0.06250   0.18750   0.31250   0.43750 
 KGrids2:  -0.43750  -0.31250  -0.18750  -0.06250   0.06250   0.18750   0.31250   0.43750 
 KGrids3:   0.00000 
<Band_DFT>  Eigen, time=13.549961
<Band_DFT>  DM, time=0.000001
    1    C  MulP   1.9997  1.9997 sum   3.9993
    2    C  MulP   1.9990  1.9990 sum   3.9979
    3    C  MulP   1.9992  1.9992 sum   3.9983
    4    C  MulP   1.9995  1.9995 sum   3.9989
    5    C  MulP   1.9990  1.9990 sum   3.9980
    6    C  MulP   1.9993  1.9993 sum   3.9986
    7    C  MulP   1.9995  1.9995 sum   3.9991
    8    C  MulP   1.9988  1.9988 sum   3.9975
    9    C  MulP   1.9998  1.9998 sum   3.9997
   10    C  MulP   1.9987  1.9987 sum   3.9973
   11    C  MulP   1.9974  1.9974 sum   3.9949
   12    C  MulP   1.9987  1.9987 sum   3.9973
   13    C  MulP   1.9998  1.9998 sum   3.9996
   14    C  MulP   1.9995  1.9995 sum   3.9991
   15    C  MulP   1.9989  1.9989 sum   3.9978
   16    C  MulP   1.9995  1.9995 sum   3.9991
   17    C  MulP   1.9983  1.9983 sum   3.9966
   18    C  MulP   1.9980  1.9980 sum   3.9960
   19    C  MulP   1.9798  1.9798 sum   3.9596
   20    C  MulP   1.9796  1.9796 sum   3.9592
     ..........
     ......

 Sum of MulP: up   =   244.00000 down          =   244.00000
              total=   488.00000 ideal(neutral)=   488.00000
<DFT>  Total Spin Moment (muB) =  0.000000000000
<DFT>  Mixing_weight= 0.030000000000
<DFT>  Uele   = -234.353396168312  dUele     =   0.000002297504
<DFT>  NormRD =    0.000002419581  Criterion =   0.000000010000

******************* MD= 1  SCF=39 *******************
<Poisson>  Poisson's equation using FFT...
<Set_Hamiltonian>  Hamiltonian matrix for VNA+dVH+Vxc...
<Band>  Solving the eigenvalue problem...
 KGrids1:  -0.43750  -0.31250  -0.18750  -0.06250   0.06250   0.18750   0.31250   0.43750 
 KGrids2:  -0.43750  -0.31250  -0.18750  -0.06250   0.06250   0.18750   0.31250   0.43750 
 KGrids3:   0.00000 
<Band_DFT>  Eigen, time=13.548306
<Band_DFT>  DM, time=0.000000
    1    C  MulP   1.9997  1.9997 sum   3.9993
    2    C  MulP   1.9990  1.9990 sum   3.9979
    3    C  MulP   1.9992  1.9992 sum   3.9983
    4    C  MulP   1.9995  1.9995 sum   3.9989
    5    C  MulP   1.9990  1.9990 sum   3.9980
    6    C  MulP   1.9993  1.9993 sum   3.9986
    7    C  MulP   1.9995  1.9995 sum   3.9991
    8    C  MulP   1.9988  1.9988 sum   3.9975
    9    C  MulP   1.9998  1.9998 sum   3.9997
   10    C  MulP   1.9987  1.9987 sum   3.9973
   11    C  MulP   1.9974  1.9974 sum   3.9949
   12    C  MulP   1.9987  1.9987 sum   3.9973
   13    C  MulP   1.9998  1.9998 sum   3.9996
   14    C  MulP   1.9995  1.9995 sum   3.9991
   15    C  MulP   1.9989  1.9989 sum   3.9978
   16    C  MulP   1.9995  1.9995 sum   3.9991
   17    C  MulP   1.9983  1.9983 sum   3.9966
   18    C  MulP   1.9980  1.9980 sum   3.9960
   19    C  MulP   1.9798  1.9798 sum   3.9596
   20    C  MulP   1.9796  1.9796 sum   3.9592
     ..........
     ......

 Sum of MulP: up   =   244.00000 down          =   244.00000
              total=   488.00000 ideal(neutral)=   488.00000
<DFT>  Total Spin Moment (muB) =  0.000000000000
<DFT>  Mixing_weight= 0.030000000000
<DFT>  Uele   = -234.353397903787  dUele     =   0.000001735475
<DFT>  NormRD =    0.000001677966  Criterion =   0.000000010000

******************* MD= 1  SCF=40 *******************
<Poisson>  Poisson's equation using FFT...
<Set_Hamiltonian>  Hamiltonian matrix for VNA+dVH+Vxc...
<Band>  Solving the eigenvalue problem...
 KGrids1:  -0.43750  -0.31250  -0.18750  -0.06250   0.06250   0.18750   0.31250   0.43750 
[...]
    9    C  MulP   1.9999  1.9999 sum   3.9998
   10    C  MulP   1.9991  1.9991 sum   3.9982
   11    C  MulP   1.9965  1.9965 sum   3.9930
   12    C  MulP   1.9990  1.9990 sum   3.9980
   13    C  MulP   1.9999  1.9999 sum   3.9999
   14    C  MulP   1.9996  1.9996 sum   3.9991
   15    C  MulP   1.9991  1.9991 sum   3.9982
   16    C  MulP   1.9996  1.9996 sum   3.9991
   17    C  MulP   1.9985  1.9985 sum   3.9971
   18    C  MulP   1.9991  1.9991 sum   3.9982
   19    C  MulP   1.9788  1.9788 sum   3.9576
   20    C  MulP   1.9787  1.9787 sum   3.9574
     ..........
     ......

 Sum of MulP: up   =   244.00000 down          =   244.00000
              total=   488.00000 ideal(neutral)=   488.00000
<DFT>  Total Spin Moment (muB) =  0.000000000000
<DFT>  Mixing_weight= 0.030000000000
<DFT>  Uele   = -234.434335319281  dUele     =   0.000000013207
<DFT>  NormRD =    0.000000106557  Criterion =   0.000000010000

******************* MD= 9  SCF=19 *******************
<Poisson>  Poisson's equation using FFT...
<Set_Hamiltonian>  Hamiltonian matrix for VNA+dVH+Vxc...
<Band>  Solving the eigenvalue problem...
 KGrids1:  -0.43750  -0.31250  -0.18750  -0.06250   0.06250   0.18750   0.31250   0.43750 
 KGrids2:  -0.43750  -0.31250  -0.18750  -0.06250   0.06250   0.18750   0.31250   0.43750 
 KGrids3:   0.00000 
<Band_DFT>  Eigen, time=13.564871
<Band_DFT>  DM, time=0.000000
    1    C  MulP   1.9996  1.9996 sum   3.9992
    2    C  MulP   1.9989  1.9989 sum   3.9978
    3    C  MulP   1.9991  1.9991 sum   3.9982
    4    C  MulP   1.9994  1.9994 sum   3.9988
    5    C  MulP   1.9993  1.9993 sum   3.9986
    6    C  MulP   1.9993  1.9993 sum   3.9987
    7    C  MulP   1.9996  1.9996 sum   3.9991
    8    C  MulP   1.9991  1.9991 sum   3.9982
    9    C  MulP   1.9999  1.9999 sum   3.9998
   10    C  MulP   1.9991  1.9991 sum   3.9982
   11    C  MulP   1.9965  1.9965 sum   3.9930
   12    C  MulP   1.9990  1.9990 sum   3.9980
   13    C  MulP   1.9999  1.9999 sum   3.9999
   14    C  MulP   1.9996  1.9996 sum   3.9991
   15    C  MulP   1.9991  1.9991 sum   3.9982
   16    C  MulP   1.9996  1.9996 sum   3.9991
   17    C  MulP   1.9985  1.9985 sum   3.9971
   18    C  MulP   1.9991  1.9991 sum   3.9982
   19    C  MulP   1.9788  1.9788 sum   3.9576
   20    C  MulP   1.9787  1.9787 sum   3.9574
     ..........
     ......

 Sum of MulP: up   =   244.00000 down          =   244.00000
              total=   488.00000 ideal(neutral)=   488.00000
<DFT>  Total Spin Moment (muB) =  0.000000000000
<DFT>  Mixing_weight= 0.030000000000
<DFT>  Uele   = -234.434335310903  dUele     =   0.000000008377
<DFT>  NormRD =    0.000000041940  Criterion =   0.000000010000
<MD= 9>  Force calculation
  Force calculation #1
  Force calculation #2
  Force calculation #3
  Force calculation #4
  Force calculation #5
<MD= 9>  Total Energy
  Force calculation #6
  Force calculation #7

*******************************************************
                  Dipole moment (Debye)                 
*******************************************************

 Absolute D        0.00049885

                      Dx                Dy                Dz
 Total             -0.00016537       -0.00029905       -0.00036341
 Core           11566.48605189    20033.74472709    24611.63163218
 Electron      -11566.48621726   -20033.74502614   -24611.63199559
 Back ground       -0.00000000       -0.00000000       -0.00000000

*******************************************************
                Total Energy (Hartree) at MD = 9        
*******************************************************

  Uele  =    -234.434335310903

  Ukin  =     507.200028167946
  UH0   =   -6750.464843966372
  UH1   =       1.792253780742
  Una   =    -355.814575320344
  Unl   =     -64.879578221598
  Uxc0  =    -117.866237230464
  Uxc1  =    -117.866237230464
  Ucore =    6185.745153848369
  Uhub  =       0.000000000000
  Ucs   =       0.000000000000
  Uzs   =       0.000000000000
  Uzo   =       0.000000000000
  Uef   =       0.000000000000
  UvdW  =       0.000000000000
  Uch   =       0.000000000000
  Utot  =    -712.154036172185

  UpV   =       0.000000000000
  Enpy  =    -712.154036172185
  Note:

  Uele:   band energy
  Ukin:   kinetic energy
  UH0:    electric part of screened Coulomb energy
  UH1:    difference electron-electron Coulomb energy
  Una:    neutral atom potential energy
  Unl:    non-local potential energy
  Uxc0:   exchange-correlation energy for alpha spin
  Uxc1:   exchange-correlation energy for beta spin
  Ucore:  core-core Coulomb energy
  Uhub:   LDA+U energy
  Ucs:    constraint energy for spin orientation
  Uzs:    Zeeman term for spin magnetic moment
  Uzo:    Zeeman term for orbital magnetic moment
  Uef:    electric energy by electric field
  UvdW:   semi-empirical vdW energy 
  Uch:    penalty term to create a core hole
  UpV:    pressure times volume
  Enpy:   Enthalpy = Utot + UpV
  (see also PRB 72, 045121(2005) for the energy contributions)


*******************************************************
           Computational times (s) at MD = 9            
*******************************************************

  DFT in total      =  323.89657

  Set_OLP_Kin       =    1.62990
  Set_Nonlocal      =    3.60319
  Set_ProExpn_VNA   =    6.19427
  Set_Hamiltonian   =   24.13740
  Poisson           =    0.29686
  diagonalization   =  268.76514
  Mixing_DM         =    2.55231
  Force             =    4.58303
  Total_Energy      =    1.67706
  Set_Aden_Grid     =    0.24239
  Set_Orbitals_Grid =    0.74920
  Set_Density_Grid  =    8.65402
  RestartFileDFT    =    0.27807
  Mulliken_Charge   =    0.01284
  FFT(2D)_Density   =    0.30141

The SCF was achieved at MD=   9

*******************************************************
             MD or geometry opt. at MD = 9              
*******************************************************


The geometry optimization was achieved.
<RF>  |Maximum force| (Hartree/Bohr) = 0.000038659650
<RF>  Criterion       (Hartree/Bohr) = 0.000100000000

     atom=   1, XYZ(ang) Fxyz(a.u.)=   0.0010    1.4255   10.5000     0.0000    0.0000    0.0000
     atom=   2, XYZ(ang) Fxyz(a.u.)=  -1.2337    3.5626   10.5000     0.0000    0.0000   -0.0000
     atom=   3, XYZ(ang) Fxyz(a.u.)=  -2.4662    5.6974   10.5000     0.0000    0.0000   -0.0000
     atom=   4, XYZ(ang) Fxyz(a.u.)=  -3.6994    7.8350   10.5000     0.0000    0.0000    0.0000
     atom=   5, XYZ(ang) Fxyz(a.u.)=  -4.9346    9.9708   10.5000     0.0000    0.0000    0.0000
     atom=   6, XYZ(ang) Fxyz(a.u.)=  -6.1686   12.1079   10.5000    -0.0000    0.0000    0.0000
     atom=   7, XYZ(ang) Fxyz(a.u.)=  -7.4021   14.2446   10.5000     0.0000   -0.0000    0.0000
     atom=   8, XYZ(ang) Fxyz(a.u.)=  -8.6360   16.3818   10.5000     0.0000   -0.0000    0.0000
     atom=   9, XYZ(ang) Fxyz(a.u.)=   2.4681    1.4279   10.5000     0.0000    0.0000   -0.0000
     atom=  10, XYZ(ang) Fxyz(a.u.)=   1.2357    3.5643   10.5000     0.0000    0.0000   -0.0000
     atom=  11, XYZ(ang) Fxyz(a.u.)=   0.0024    5.6993   10.5000    -0.0000    0.0000   -0.0000
     atom=  12, XYZ(ang) Fxyz(a.u.)=  -1.2294    7.8349   10.5000     0.0000    0.0000   -0.0000
     atom=  13, XYZ(ang) Fxyz(a.u.)=  -2.4636    9.9703   10.5000     0.0000    0.0000    0.0000
     atom=  14, XYZ(ang) Fxyz(a.u.)=  -3.7005   12.1079   10.5000    -0.0000    0.0000    0.0000
     atom=  15, XYZ(ang) Fxyz(a.u.)=  -4.9346   14.2448   10.5000     0.0000    0.0000    0.0000
     atom=  16, XYZ(ang) Fxyz(a.u.)=  -6.1682   16.3819   10.5000     0.0000    0.0000    0.0000
     atom=  17, XYZ(ang) Fxyz(a.u.)=   4.9346    1.4234   10.5000     0.0000    0.0000    0.0000
     atom=  18, XYZ(ang) Fxyz(a.u.)=   3.7072    3.5645   10.5000    -0.0000    0.0000    0.0000
     atom=  19, XYZ(ang) Fxyz(a.u.)=   2.4749    5.7149   10.5000    -0.0000   -0.0000    0.0000
     atom=  20, XYZ(ang) Fxyz(a.u.)=   1.2532    7.8326   10.5000    -0.0000   -0.0000    0.0000
     atom=  21, XYZ(ang) Fxyz(a.u.)=   0.0069    9.9748   10.5000    -0.0000   -0.0000   -0.0000
     atom=  22, XYZ(ang) Fxyz(a.u.)=  -1.2342   12.1084   10.5000     0.0000   -0.0000    0.0000
     atom=  23, XYZ(ang) Fxyz(a.u.)=  -2.4669   14.2445   10.5000    -0.0000   -0.0000    0.0000
     atom=  24, XYZ(ang) Fxyz(a.u.)=  -3.7010   16.3819   10.5000    -0.0000    0.0000    0.0000
     atom=  25, XYZ(ang) Fxyz(a.u.)=   7.4010    1.4280   10.5000    -0.0000    0.0000    0.0000
     atom=  26, XYZ(ang) Fxyz(a.u.)=   6.1617    3.5648   10.5000     0.0000    0.0000    0.0000
     atom=  27, XYZ(ang) Fxyz(a.u.)=   4.9341    5.6777   10.5000     0.0000   -0.0000    0.0000
     atom=  28, XYZ(ang) Fxyz(a.u.)=   2.4514    9.9810   10.5000    -0.0000   -0.0000    0.0000
     atom=  29, XYZ(ang) Fxyz(a.u.)=   1.2339   12.1006   10.5000    -0.0000    0.0000    0.0000
     atom=  30, XYZ(ang) Fxyz(a.u.)=   0.0026   14.2423   10.5000    -0.0000   -0.0000    0.0000
     atom=  31, XYZ(ang) Fxyz(a.u.)=  -1.2332   16.3818   10.5000    -0.0000   -0.0000    0.0000
     atom=  32, XYZ(ang) Fxyz(a.u.)=   9.8680    1.4256   10.5000    -0.0000    0.0000    0.0000
     atom=  33, XYZ(ang) Fxyz(a.u.)=   8.6332    3.5646   10.5000     0.0000    0.0000    0.0000
     atom=  34, XYZ(ang) Fxyz(a.u.)=   7.3936    5.7154   10.5000     0.0000   -0.0000    0.0000
     atom=  35, XYZ(ang) Fxyz(a.u.)=   3.7122   12.0928   10.5000    -0.0000    0.0000    0.0000
     atom=  36, XYZ(ang) Fxyz(a.u.)=   2.4691   14.2412   10.5000     0.0000   -0.0000    0.0000
     atom=  37, XYZ(ang) Fxyz(a.u.)=   1.2340   16.3801   10.5000     0.0000   -0.0000    0.0000
     atom=  38, XYZ(ang) Fxyz(a.u.)=  12.3361    1.4244   10.5000     0.0000   -0.0000    0.0000
     atom=  39, XYZ(ang) Fxyz(a.u.)=  11.1026    3.5626   10.5000    -0.0000    0.0000    0.0000
     atom=  40, XYZ(ang) Fxyz(a.u.)=   9.8664    5.6995   10.5000     0.0000   -0.0000   -0.0000
     atom=  41, XYZ(ang) Fxyz(a.u.)=   8.6156    7.8329   10.5000     0.0000   -0.0000   -0.0000
     atom=  42, XYZ(ang) Fxyz(a.u.)=   7.4184    9.9819   10.5000     0.0000   -0.0000    0.0000
     atom=  43, XYZ(ang) Fxyz(a.u.)=   6.1573   12.0931   10.5000    -0.0000    0.0000    0.0000
     atom=  44, XYZ(ang) Fxyz(a.u.)=   4.9346   14.2423   10.5000    -0.0000   -0.0000    0.0000
     atom=  45, XYZ(ang) Fxyz(a.u.)=   3.7020   16.3810   10.5000     0.0000   -0.0000   -0.0000
     atom=  46, XYZ(ang) Fxyz(a.u.)=  14.8037    1.4243   10.5000     0.0000   -0.0000   -0.0000
     atom=  47, XYZ(ang) Fxyz(a.u.)=  13.5698    3.5614   10.5000    -0.0000   -0.0000   -0.0000
     atom=  48, XYZ(ang) Fxyz(a.u.)=  12.3351    5.6974   10.5000    -0.0000   -0.0000   -0.0000
     atom=  49, XYZ(ang) Fxyz(a.u.)=  11.0984    7.8350   10.5000     0.0000   -0.0000   -0.0000
     atom=  50, XYZ(ang) Fxyz(a.u.)=   9.8624    9.9751   10.5000     0.0000   -0.0000   -0.0000
     atom=  51, XYZ(ang) Fxyz(a.u.)=   8.6356   12.1011   10.5000    -0.0000   -0.0000    0.0000
     atom=  52, XYZ(ang) Fxyz(a.u.)=   7.4001   14.2415   10.5000    -0.0000   -0.0000    0.0000
     atom=  53, XYZ(ang) Fxyz(a.u.)=   6.1670   16.3810   10.5000    -0.0000   -0.0000    0.0000
     atom=  54, XYZ(ang) Fxyz(a.u.)=  17.2711    1.4244   10.5000     0.0000   -0.0000   -0.0000
     atom=  55, XYZ(ang) Fxyz(a.u.)=  16.0375    3.5613   10.5000     0.0000   -0.0000   -0.0000
     atom=  56, XYZ(ang) Fxyz(a.u.)=  14.8036    5.6982   10.5000     0.0000   -0.0000   -0.0000
     atom=  57, XYZ(ang) Fxyz(a.u.)=  13.5684    7.8350   10.5000    -0.0000    0.0000   -0.0000
     atom=  58, XYZ(ang) Fxyz(a.u.)=  12.3328    9.9703   10.5000    -0.0000   -0.0000    0.0000
     atom=  59, XYZ(ang) Fxyz(a.u.)=  11.1035   12.1085   10.5000    -0.0000   -0.0000    0.0000
     atom=  60, XYZ(ang) Fxyz(a.u.)=   9.8665   14.2424   10.5000    -0.0000   -0.0000    0.0000
     atom=  61, XYZ(ang) Fxyz(a.u.)=   8.6351   16.3802   10.5000    -0.0000   -0.0000    0.0000
     atom=  62, XYZ(ang) Fxyz(a.u.)=   1.2341    0.7137   10.5000     0.0000    0.0000   -0.0000
     atom=  63, XYZ(ang) Fxyz(a.u.)=   0.0026    2.8515   10.5000     0.0000    0.0000    0.0000
     atom=  64, XYZ(ang) Fxyz(a.u.)=  -1.2343    4.9854   10.5000     0.0000    0.0000    0.0000
     atom=  65, XYZ(ang) Fxyz(a.u.)=  -2.4636    7.1236   10.5000     0.0000    0.0000    0.0000
     atom=  66, XYZ(ang) Fxyz(a.u.)=  -3.6993    9.2589   10.5000     0.0000   -0.0000   -0.0000
     atom=  67, XYZ(ang) Fxyz(a.u.)=  -4.9345   11.3957   10.5000    -0.0000    0.0000   -0.0000
     atom=  68, XYZ(ang) Fxyz(a.u.)=  -6.1683   13.5326   10.5000    -0.0000    0.0000   -0.0000
     atom=  69, XYZ(ang) Fxyz(a.u.)=  -7.4019   15.6695   10.5000    -0.0000    0.0000   -0.0000
     atom=  70, XYZ(ang) Fxyz(a.u.)=   3.7022    0.7129   10.5000     0.0000    0.0000   -0.0000
     atom=  71, XYZ(ang) Fxyz(a.u.)=   2.4690    2.8524   10.5000     0.0000    0.0000    0.0000
     atom=  72, XYZ(ang) Fxyz(a.u.)=   1.2336    4.9928   10.5000     0.0000    0.0000   -0.0000
     atom=  73, XYZ(ang) Fxyz(a.u.)=   0.0067    7.1188   10.5000    -0.0000    0.0000    0.0000
     atom=  74, XYZ(ang) Fxyz(a.u.)=  -1.2293    9.2589   10.5000    -0.0000    0.0000    0.0000
     atom=  75, XYZ(ang) Fxyz(a.u.)=  -2.4660   11.3965   10.5000     0.0000    0.0000   -0.0000
     atom=  76, XYZ(ang) Fxyz(a.u.)=  -3.7006   13.5325   10.5000     0.0000    0.0000   -0.0000
     atom=  77, XYZ(ang) Fxyz(a.u.)=  -4.9345   15.6696   10.5000    -0.0000    0.0000   -0.0000
     atom=  78, XYZ(ang) Fxyz(a.u.)=   6.1672    0.7129   10.5000    -0.0000    0.0000   -0.0000
     atom=  79, XYZ(ang) Fxyz(a.u.)=   4.9346    2.8516   10.5000     0.0000    0.0000   -0.0000
     atom=  80, XYZ(ang) Fxyz(a.u.)=   3.7119    5.0008   10.5000     0.0000   -0.0000   -0.0000
     atom=  81, XYZ(ang) Fxyz(a.u.)=   2.4507    7.1120   10.5000    -0.0000    0.0000   -0.0000
     atom=  82, XYZ(ang) Fxyz(a.u.)=   1.2536    9.2610   10.5000    -0.0000    0.0000   -0.0000
     atom=  83, XYZ(ang) Fxyz(a.u.)=   0.0028   11.3944   10.5000    -0.0000    0.0000   -0.0000
     atom=  84, XYZ(ang) Fxyz(a.u.)=  -1.2335   13.5313   10.5000     0.0000   -0.0000   -0.0000
     atom=  85, XYZ(ang) Fxyz(a.u.)=  -2.4670   15.6695   10.5000    -0.0000    0.0000   -0.0000
     atom=  86, XYZ(ang) Fxyz(a.u.)=   8.6351    0.7138   10.5000    -0.0000    0.0000   -0.0000
     atom=  87, XYZ(ang) Fxyz(a.u.)=   7.4001    2.8526   10.5000    -0.0000    0.0000   -0.0000
     atom=  88, XYZ(ang) Fxyz(a.u.)=   6.1570    5.0011   10.5000     0.0000   -0.0000   -0.0000
     atom=  89, XYZ(ang) Fxyz(a.u.)=   2.4755   11.3785   10.5000    -0.0000    0.0000   -0.0000
     atom=  90, XYZ(ang) Fxyz(a.u.)=   1.2360   13.5293   10.5000    -0.0000   -0.0000   -0.0000
     atom=  91, XYZ(ang) Fxyz(a.u.)=   0.0011   15.6683   10.5000     0.0000   -0.0000   -0.0000
     atom=  92, XYZ(ang) Fxyz(a.u.)=  11.1024    0.7121   10.5000     0.0000    0.0000   -0.0000
     atom=  93, XYZ(ang) Fxyz(a.u.)=   9.8665    2.8516   10.5000     0.0000    0.0000   -0.0000
     atom=  94, XYZ(ang) Fxyz(a.u.)=   8.6352    4.9933   10.5000     0.0000   -0.0000   -0.0000
     atom=  95, XYZ(ang) Fxyz(a.u.)=   7.4178    7.1129   10.5000     0.0000    0.0000    0.0000
     atom=  96, XYZ(ang) Fxyz(a.u.)=   4.9350   11.4162   10.5000    -0.0000    0.0000   -0.0000
     atom=  97, XYZ(ang) Fxyz(a.u.)=   3.7075   13.5291   10.5000    -0.0000   -0.0000   -0.0000
     atom=  98, XYZ(ang) Fxyz(a.u.)=   2.4682   15.6659   10.5000     0.0000   -0.0000   -0.0000
     atom=  99, XYZ(ang) Fxyz(a.u.)=  13.5702    0.7120   10.5000     0.0000   -0.0000    0.0000
     atom= 100, XYZ(ang) Fxyz(a.u.)=  12.3361    2.8494   10.5000     0.0000    0.0000   -0.0000
     atom= 101, XYZ(ang) Fxyz(a.u.)=  11.1034    4.9855   10.5000    -0.0000    0.0000    0.0000
     atom= 102, XYZ(ang) Fxyz(a.u.)=   9.8623    7.1191   10.5000     0.0000    0.0000    0.0000
     atom= 103, XYZ(ang) Fxyz(a.u.)=   8.6160    9.2613   10.5000     0.0000    0.0000    0.0000
     atom= 104, XYZ(ang) Fxyz(a.u.)=   7.3943   11.3790   10.5000     0.0000    0.0000   -0.0000
     atom= 105, XYZ(ang) Fxyz(a.u.)=   6.1620   13.5294   10.5000     0.0000   -0.0000   -0.0000
     atom= 106, XYZ(ang) Fxyz(a.u.)=   4.9346   15.6704   10.5000    -0.0000   -0.0000   -0.0000
     atom= 107, XYZ(ang) Fxyz(a.u.)=  16.0373    0.7120   10.5000    -0.0000   -0.0000    0.0000
     atom= 108, XYZ(ang) Fxyz(a.u.)=  14.8037    2.8491   10.5000    -0.0000   -0.0000    0.0000
     atom= 109, XYZ(ang) Fxyz(a.u.)=  13.5697    4.9860   10.5000     0.0000   -0.0000    0.0000
     atom= 110, XYZ(ang) Fxyz(a.u.)=  12.3328    7.1236   10.5000    -0.0000   -0.0000    0.0000
     atom= 111, XYZ(ang) Fxyz(a.u.)=  11.0986    9.2590   10.5000    -0.0000   -0.0000   -0.0000
     atom= 112, XYZ(ang) Fxyz(a.u.)=   9.8667   11.3946   10.5000     0.0000   -0.0000   -0.0000
     atom= 113, XYZ(ang) Fxyz(a.u.)=   8.6335   13.5296   10.5000    -0.0000   -0.0000   -0.0000
     atom= 114, XYZ(ang) Fxyz(a.u.)=   7.4011   15.6660   10.5000    -0.0000   -0.0000   -0.0000
     atom= 115, XYZ(ang) Fxyz(a.u.)=  18.5052    0.7120   10.5000    -0.0000    0.0000   -0.0000
     atom= 116, XYZ(ang) Fxyz(a.u.)=  17.2713    2.8493   10.5000    -0.0000    0.0000    0.0000
     atom= 117, XYZ(ang) Fxyz(a.u.)=  16.0378    4.9860   10.5000     0.0000   -0.0000    0.0000
     atom= 118, XYZ(ang) Fxyz(a.u.)=  14.8037    7.1231   10.5000    -0.0000   -0.0000    0.0000
     atom= 119, XYZ(ang) Fxyz(a.u.)=  13.5686    9.2589   10.5000    -0.0000   -0.0000   -0.0000
     atom= 120, XYZ(ang) Fxyz(a.u.)=  12.3353   11.3965   10.5000    -0.0000   -0.0000   -0.0000
     atom= 121, XYZ(ang) Fxyz(a.u.)=  11.1029   13.5313   10.5000    -0.0000   -0.0000   -0.0000
     atom= 122, XYZ(ang) Fxyz(a.u.)=   9.8682   15.6684   10.5000    -0.0000   -0.0000   -0.0000

outputting data on grids to files...


***********************************************************
***********************************************************
               Computational Time (second)                 
***********************************************************
***********************************************************

                               Min_ID   Min_Time       Max_ID   Max_Time
   Total Computational Time =    11     3718.738          0     3718.901
   readfile                 =    23        2.106          0        2.118
   truncation               =    24       10.460         23       11.004
   MD_pac                   =     0        0.217         28        0.251
   OutData                  =    16        1.046          0        1.207
   DFT                      =    23     3704.265         24     3704.810

*** In DFT ***

   Set_OLP_Kin              =    24       13.122          1       19.707
   Set_Nonlocal             =     1       27.635         24       34.224
   Set_ProExpn_VNA          =     8       54.821          1       56.924
   Set_Hamiltonian          =    14      284.228          4      284.229
   Poisson                  =    14        3.389          1        3.390
   Diagonalization          =     0     3109.905         29     3109.909
   Mixing_DM                =     6       29.356          8       29.356
   Force                    =    16       41.221         24       41.221
   Total_Energy             =    21       15.152          0       15.155
   Set_Aden_Grid            =     1        0.707          8        2.806
   Set_Orbitals_Grid        =    24        5.994         23        9.230
   Set_Density_Grid         =     5      100.474          7      101.585
   RestartFileDFT           =    23        0.417         24        3.416
   Mulliken_Charge          =    26        0.132         11        0.135
   FFT(2D)_Density          =    11        3.442          7        3.442
   Others                   =    23        1.451          5        3.356

The calculation was normally finished.
