
The number of threads in each node for OpenMP parallelization is 1.


*******************************************************
*******************************************************
 Welcome to OpenMX   Ver. 3.9.9                           
 Copyright (C), 2002-2019, T. Ozaki                    
 OpenMX comes with ABSOLUTELY NO WARRANTY.             
 This is free software, and you are welcome to         
 redistribute it under the constitution of the GNU-GPL.
*******************************************************
*******************************************************

Automatic determination of Kerker_factor:   3.992945286074


<Input_std>  Your input file was normally read.
<Input_std>  The system includes 3 species and 109 atoms.

*******************************************************
                     PAO and VPS                       
*******************************************************

<SetPara_DFT>  PAOs of species H were normally found.
<SetPara_DFT>  PAOs of species C were normally found.
<SetPara_DFT>  PAOs of species O were normally found.
<SetPara_DFT>  VPSs of species H were normally found.
               H_PBE19.vps is j-dependent.
               In case of scf.SpinOrbit.Coupling=off,
               j-dependent pseudo potentials are averaged by j-degeneracy,
               which corresponds to a scalar relativistic treatment.
<SetPara_DFT>  VPSs of species C were normally found.
               C_PBE19.vps is j-dependent.
               In case of scf.SpinOrbit.Coupling=off,
               j-dependent pseudo potentials are averaged by j-degeneracy,
               which corresponds to a scalar relativistic treatment.
<SetPara_DFT>  VPSs of species O were normally found.
               O_PBE19.vps is j-dependent.
               In case of scf.SpinOrbit.Coupling=off,
               j-dependent pseudo potentials are averaged by j-degeneracy,
               which corresponds to a scalar relativistic treatment.

*******************************************************
     Fourier transform of PAO and projectors of VNL    
*******************************************************

<FT_PAO>          Fourier transform of pseudo atomic orbitals
<FT_NLP>          Fourier transform of non-local projectors
<FT_ProExpn_VNA>  Fourier transform of VNA separable projectors
<FT_VNA>          Fourier transform of VNA potentials
<FT_ProductPAO>   Fourier transform of product of PAOs

*******************************************************
  Allocation of atoms to processors at MD_iter=    1     
*******************************************************

 proc =   0  # of atoms=   1  estimated weight=         1.00000
 proc =   1  # of atoms=   2  estimated weight=         2.00000
 proc =   2  # of atoms=   1  estimated weight=         1.00000
 proc =   3  # of atoms=   2  estimated weight=         2.00000
 proc =   4  # of atoms=   1  estimated weight=         1.00000
 proc =   5  # of atoms=   2  estimated weight=         2.00000
 proc =   6  # of atoms=   2  estimated weight=         2.00000
 proc =   7  # of atoms=   2  estimated weight=         2.00000
 proc =   8  # of atoms=   1  estimated weight=         1.00000
 proc =   9  # of atoms=   2  estimated weight=         2.00000
 proc =  10  # of atoms=   2  estimated weight=         2.00000
 proc =  11  # of atoms=   2  estimated weight=         2.00000
 proc =  12  # of atoms=   1  estimated weight=         1.00000
 proc =  13  # of atoms=   2  estimated weight=         2.00000
 proc =  14  # of atoms=   2  estimated weight=         2.00000
 proc =  15  # of atoms=   2  estimated weight=         2.00000
 proc =  16  # of atoms=   1  estimated weight=         1.00000
 proc =  17  # of atoms=   2  estimated weight=         2.00000
 proc =  18  # of atoms=   1  estimated weight=         1.00000
 proc =  19  # of atoms=   2  estimated weight=         2.00000
 proc =  20  # of atoms=   1  estimated weight=         1.00000
 proc =  21  # of atoms=   2  estimated weight=         2.00000
 proc =  22  # of atoms=   2  estimated weight=         2.00000
 proc =  23  # of atoms=   2  estimated weight=         2.00000
 proc =  24  # of atoms=   1  estimated weight=         1.00000
 proc =  25  # of atoms=   2  estimated weight=         2.00000
 proc =  26  # of atoms=   2  estimated weight=         2.00000
 proc =  27  # of atoms=   2  estimated weight=         2.00000
 proc =  28  # of atoms=   1  estimated weight=         1.00000
 proc =  29  # of atoms=   2  estimated weight=         2.00000
 proc =  30  # of atoms=   2  estimated weight=         2.00000
 proc =  31  # of atoms=   2  estimated weight=         2.00000
 proc =  32  # of atoms=   1  estimated weight=         1.00000
 proc =  33  # of atoms=   2  estimated weight=         2.00000
 proc =  34  # of atoms=   1  estimated weight=         1.00000
 proc =  35  # of atoms=   2  estimated weight=         2.00000
 proc =  36  # of atoms=   1  estimated weight=         1.00000
 proc =  37  # of atoms=   2  estimated weight=         2.00000
 proc =  38  # of atoms=   2  estimated weight=         2.00000
 proc =  39  # of atoms=   2  estimated weight=         2.00000
 proc =  40  # of atoms=   1  estimated weight=         1.00000
 proc =  41  # of atoms=   2  estimated weight=         2.00000
 proc =  42  # of atoms=   2  estimated weight=         2.00000
 proc =  43  # of atoms=   2  estimated weight=         2.00000
 proc =  44  # of atoms=   1  estimated weight=         1.00000
 proc =  45  # of atoms=   2  estimated weight=         2.00000
 proc =  46  # of atoms=   2  estimated weight=         2.00000
 proc =  47  # of atoms=   2  estimated weight=         2.00000
 proc =  48  # of atoms=   1  estimated weight=         1.00000
 proc =  49  # of atoms=   2  estimated weight=         2.00000
 proc =  50  # of atoms=   2  estimated weight=         2.00000
 proc =  51  # of atoms=   2  estimated weight=         2.00000
 proc =  52  # of atoms=   1  estimated weight=         1.00000
 proc =  53  # of atoms=   2  estimated weight=         2.00000
 proc =  54  # of atoms=   2  estimated weight=         2.00000
 proc =  55  # of atoms=   2  estimated weight=         2.00000
 proc =  56  # of atoms=   1  estimated weight=         1.00000
 proc =  57  # of atoms=   2  estimated weight=         2.00000
 proc =  58  # of atoms=   2  estimated weight=         2.00000
 proc =  59  # of atoms=   2  estimated weight=         2.00000
 proc =  60  # of atoms=   1  estimated weight=         1.00000
 proc =  61  # of atoms=   2  estimated weight=         2.00000
 proc =  62  # of atoms=   2  estimated weight=         2.00000
 proc =  63  # of atoms=   2  estimated weight=         2.00000




*******************************************************
        Analysis of neighbors and setting of grids        
*******************************************************

TFNAN=    4264   Average FNAN=  39.11927
TSNAN=       0   Average SNAN=   0.00000
<truncation> CpyCell= 1 ct_AN=   1 FNAN SNAN  42   0
<truncation> CpyCell= 1 ct_AN=   2 FNAN SNAN  40   0
<truncation> CpyCell= 1 ct_AN=   3 FNAN SNAN  41   0
<truncation> CpyCell= 1 ct_AN=   4 FNAN SNAN  44   0
<truncation> CpyCell= 1 ct_AN=   5 FNAN SNAN  45   0
<truncation> CpyCell= 1 ct_AN=   6 FNAN SNAN  42   0
<truncation> CpyCell= 1 ct_AN=   7 FNAN SNAN  43   0
<truncation> CpyCell= 1 ct_AN=   8 FNAN SNAN  43   0
<truncation> CpyCell= 1 ct_AN=   9 FNAN SNAN  39   0
<truncation> CpyCell= 1 ct_AN=  10 FNAN SNAN  35   0
<truncation> CpyCell= 1 ct_AN=  11 FNAN SNAN  35   0
<truncation> CpyCell= 1 ct_AN=  12 FNAN SNAN  38   0
<truncation> CpyCell= 1 ct_AN=  13 FNAN SNAN  43   0
<truncation> CpyCell= 1 ct_AN=  14 FNAN SNAN  45   0
<truncation> CpyCell= 1 ct_AN=  15 FNAN SNAN  46   0
<truncation> CpyCell= 1 ct_AN=  16 FNAN SNAN  43   0
<truncation> CpyCell= 1 ct_AN=  17 FNAN SNAN  37   0
<truncation> CpyCell= 1 ct_AN=  18 FNAN SNAN  31   0
<truncation> CpyCell= 1 ct_AN=  19 FNAN SNAN  35   0
<truncation> CpyCell= 1 ct_AN=  20 FNAN SNAN  41   0
     ..........
     ......

TFNAN=    4264   Average FNAN=  39.11927
TSNAN=       0   Average SNAN=   0.00000
<truncation> CpyCell= 2 ct_AN=   1 FNAN SNAN  42   0
<truncation> CpyCell= 2 ct_AN=   2 FNAN SNAN  40   0
<truncation> CpyCell= 2 ct_AN=   3 FNAN SNAN  41   0
<truncation> CpyCell= 2 ct_AN=   4 FNAN SNAN  44   0
<truncation> CpyCell= 2 ct_AN=   5 FNAN SNAN  45   0
<truncation> CpyCell= 2 ct_AN=   6 FNAN SNAN  42   0
<truncation> CpyCell= 2 ct_AN=   7 FNAN SNAN  43   0
<truncation> CpyCell= 2 ct_AN=   8 FNAN SNAN  43   0
<truncation> CpyCell= 2 ct_AN=   9 FNAN SNAN  39   0
<truncation> CpyCell= 2 ct_AN=  10 FNAN SNAN  35   0
<truncation> CpyCell= 2 ct_AN=  11 FNAN SNAN  35   0
<truncation> CpyCell= 2 ct_AN=  12 FNAN SNAN  38   0
<truncation> CpyCell= 2 ct_AN=  13 FNAN SNAN  43   0
<truncation> CpyCell= 2 ct_AN=  14 FNAN SNAN  45   0
<truncation> CpyCell= 2 ct_AN=  15 FNAN SNAN  46   0
<truncation> CpyCell= 2 ct_AN=  16 FNAN SNAN  43   0
<truncation> CpyCell= 2 ct_AN=  17 FNAN SNAN  37   0
<truncation> CpyCell= 2 ct_AN=  18 FNAN SNAN  31   0
<truncation> CpyCell= 2 ct_AN=  19 FNAN SNAN  35   0
<truncation> CpyCell= 2 ct_AN=  20 FNAN SNAN  41   0
     ..........
     ......

TFNAN=    4264   Average FNAN=  39.11927
TSNAN=       0   Average SNAN=   0.00000
<truncation> CpyCell= 2 ct_AN=   1 FNAN SNAN  42   0
<truncation> CpyCell= 2 ct_AN=   2 FNAN SNAN  40   0
<truncation> CpyCell= 2 ct_AN=   3 FNAN SNAN  41   0
<truncation> CpyCell= 2 ct_AN=   4 FNAN SNAN  44   0
<truncation> CpyCell= 2 ct_AN=   5 FNAN SNAN  45   0
<truncation> CpyCell= 2 ct_AN=   6 FNAN SNAN  42   0
<truncation> CpyCell= 2 ct_AN=   7 FNAN SNAN  43   0
<truncation> CpyCell= 2 ct_AN=   8 FNAN SNAN  43   0
<truncation> CpyCell= 2 ct_AN=   9 FNAN SNAN  39   0
<truncation> CpyCell= 2 ct_AN=  10 FNAN SNAN  35   0
<truncation> CpyCell= 2 ct_AN=  11 FNAN SNAN  35   0
<truncation> CpyCell= 2 ct_AN=  12 FNAN SNAN  38   0
<truncation> CpyCell= 2 ct_AN=  13 FNAN SNAN  43   0
<truncation> CpyCell= 2 ct_AN=  14 FNAN SNAN  45   0
<truncation> CpyCell= 2 ct_AN=  15 FNAN SNAN  46   0
<truncation> CpyCell= 2 ct_AN=  16 FNAN SNAN  43   0
<truncation> CpyCell= 2 ct_AN=  17 FNAN SNAN  37   0
<truncation> CpyCell= 2 ct_AN=  18 FNAN SNAN  31   0
<truncation> CpyCell= 2 ct_AN=  19 FNAN SNAN  35   0
<truncation> CpyCell= 2 ct_AN=  20 FNAN SNAN  41   0
     ..........
     ......

<Check_System> The system is slab.
lattice vectors (bohr)
A  = 37.299978480367,  0.000000000000,  0.000000000000
B  = -18.649989240184, 32.302728872609,  0.000000000000
C  =  0.000000000000,  0.000000000000, 39.684245760157
reciprocal lattice vectors (bohr^-1)
RA =  0.168450105420,  0.097254713866, -0.000000000000
RB =  0.000000000000,  0.194509427732,  0.000000000000
RC =  0.000000000000, -0.000000000000,  0.158329462658
Grid_Origin -0.140674331810  0.200860107948  0.360378757613
Cell_Volume =  47815.194201431834 (Bohr^3)
GridVol     =      0.006832303698 (Bohr^3)
Grid_Origin -0.140674331810  0.200860107948  0.360378757613
Cell_Volume =  47815.194201431834 (Bohr^3)
GridVol     =      0.006832303698 (Bohr^3)
<UCell_Box> Info. of cutoff energy and num. of grids
lattice vectors (bohr)
A  = 37.299978480367,  0.000000000000,  0.000000000000
B  = -18.649989240184, 32.302728872609,  0.000000000000
C  =  0.000000000000,  0.000000000000, 39.684245760157
reciprocal lattice vectors (bohr^-1)
RA =  0.168450105420,  0.097254713866, -0.000000000000
RB =  0.000000000000,  0.194509427732,  0.000000000000
RC =  0.000000000000, -0.000000000000,  0.158329462658
Required cutoff energy (Ryd) for 3D-grids = 300.0000
    Used cutoff energy (Ryd) for 3D-grids = 306.4547, 306.4547, 292.3957
Num. of grids of a-, b-, and c-axes = 180, 180, 216
Grid_Origin -0.140674331810  0.200860107948  0.360378757613
Cell_Volume =  47815.194201431834 (Bohr^3)
GridVol     =      0.006832303698 (Bohr^3)
Cell vectors (bohr) of the grid cell (gtv)
  gtv_a =  0.207222102669,  0.000000000000,  0.000000000000
  gtv_b = -0.103611051334,  0.179459604848,  0.000000000000
  gtv_c =  0.000000000000,  0.000000000000,  0.183723360001
  |gtv_a| =  0.207222102669
  |gtv_b| =  0.207222102419
  |gtv_c| =  0.183723360001
Num. of grids overlapping with atom    1 = 132441
Num. of grids overlapping with atom    2 = 132439
Num. of grids overlapping with atom    3 = 132429
Num. of grids overlapping with atom    4 = 132426
Num. of grids overlapping with atom    5 = 132428
Num. of grids overlapping with atom    6 = 132504
Num. of grids overlapping with atom    7 = 132423
Num. of grids overlapping with atom    8 = 132451
Num. of grids overlapping with atom    9 = 132379
Num. of grids overlapping with atom   10 = 132394
Num. of grids overlapping with atom   11 = 132419
Num. of grids overlapping with atom   12 = 132421
Num. of grids overlapping with atom   13 = 132382
Num. of grids overlapping with atom   14 = 132450
Num. of grids overlapping with atom   15 = 132403
Num. of grids overlapping with atom   16 = 132444
Num. of grids overlapping with atom   17 = 132440
Num. of grids overlapping with atom   18 = 132452
Num. of grids overlapping with atom   19 = 132393
Num. of grids overlapping with atom   20 = 132391
     ..........
     ......


*******************************************************
             SCF calculation at MD = 1                
*******************************************************

<MD= 1>  Calculation of the overlap matrix
<MD= 1>  Calculation of the nonlocal matrix
<MD= 1>  Calculation of the VNA projector matrix

******************* MD= 1  SCF= 1 *******************
<Band>  Solving the eigenvalue problem...
 KGrids1:  -0.43750  -0.31250  -0.18750  -0.06250   0.06250   0.18750   0.31250   0.43750 
 KGrids2:  -0.43750  -0.31250  -0.18750  -0.06250   0.06250   0.18750   0.31250   0.43750 
 KGrids3:   0.00000 
<Band_DFT>  Eigen, time=16.267366
<Band_DFT>  DM, time=0.000005
    1    C  MulP   1.9843  1.9843 sum   3.9686
    2    C  MulP   1.9943  1.9943 sum   3.9885
    3    C  MulP   1.9931  1.9931 sum   3.9862
    4    C  MulP   1.9845  1.9845 sum   3.9690
    5    C  MulP   1.9973  1.9973 sum   3.9946
    6    C  MulP   1.9803  1.9803 sum   3.9607
    7    C  MulP   1.9827  1.9827 sum   3.9653
    8    C  MulP   1.9981  1.9981 sum   3.9962
    9    C  MulP   1.9842  1.9842 sum   3.9684
   10    C  MulP   1.9878  1.9878 sum   3.9756
   11    C  MulP   1.9582  1.9582 sum   3.9164
   12    C  MulP   1.9909  1.9909 sum   3.9817
   13    C  MulP   1.9926  1.9926 sum   3.9852
   14    C  MulP   1.9821  1.9821 sum   3.9641
   15    C  MulP   1.9942  1.9942 sum   3.9883
   16    C  MulP   1.9827  1.9827 sum   3.9654
   17    C  MulP   1.9563  1.9563 sum   3.9127
   18    C  MulP   2.0960  2.0960 sum   4.1919
   19    C  MulP   2.1118  2.1118 sum   4.2236
   20    C  MulP   1.9607  1.9607 sum   3.9214
     ..........
     ......

 Sum of MulP: up   =   219.50000 down          =   219.50000
              total=   439.00000 ideal(neutral)=   439.00000
<DFT>  Total Spin Moment (muB) =  0.000000000000
<DFT>  Mixing_weight= 0.050000000000
<DFT>  Uele   = -179.401873093289  dUele     =   1.000000000000
<DFT>  NormRD =    1.000000000000  Criterion =   0.000000010000

******************* MD= 1  SCF= 2 *******************
<Poisson>  Poisson's equation using FFT...
<Set_Hamiltonian>  Hamiltonian matrix for VNA+dVH+Vxc...
<Band>  Solving the eigenvalue problem...
 KGrids1:  -0.43750  -0.31250  -0.18750  -0.06250   0.06250   0.18750   0.31250   0.43750 
 KGrids2:  -0.43750  -0.31250  -0.18750  -0.06250   0.06250   0.18750   0.31250   0.43750 
 KGrids3:   0.00000 
<Band_DFT>  Eigen, time=9.315959
<Band_DFT>  DM, time=0.000000
    1    C  MulP   1.9843  1.9843 sum   3.9686
    2    C  MulP   1.9943  1.9943 sum   3.9885
    3    C  MulP   1.9931  1.9931 sum   3.9862
    4    C  MulP   1.9845  1.9845 sum   3.9690
    5    C  MulP   1.9973  1.9973 sum   3.9946
    6    C  MulP   1.9803  1.9803 sum   3.9607
    7    C  MulP   1.9827  1.9827 sum   3.9653
    8    C  MulP   1.9981  1.9981 sum   3.9962
    9    C  MulP   1.9842  1.9842 sum   3.9684
   10    C  MulP   1.9878  1.9878 sum   3.9756
   11    C  MulP   1.9582  1.9582 sum   3.9164
   12    C  MulP   1.9909  1.9909 sum   3.9817
   13    C  MulP   1.9926  1.9926 sum   3.9852
   14    C  MulP   1.9821  1.9821 sum   3.9641
   15    C  MulP   1.9942  1.9942 sum   3.9883
   16    C  MulP   1.9827  1.9827 sum   3.9654
   17    C  MulP   1.9563  1.9563 sum   3.9127
   18    C  MulP   2.0960  2.0960 sum   4.1919
   19    C  MulP   2.1118  2.1118 sum   4.2236
   20    C  MulP   1.9607  1.9607 sum   3.9214
     ..........
     ......

 Sum of MulP: up   =   219.50000 down          =   219.50000
              total=   439.00000 ideal(neutral)=   439.00000
<DFT>  Total Spin Moment (muB) =  0.000000000000
<DFT>  Mixing_weight= 0.010000000000
<DFT>  Uele   = -179.401873093289  dUele     =   0.000000000000
<DFT>  NormRD =    9.921821074260  Criterion =   0.000000010000

******************* MD= 1  SCF= 3 *******************
<Poisson>  Poisson's equation using FFT...
<Set_Hamiltonian>  Hamiltonian matrix for VNA+dVH+Vxc...
<Band>  Solving the eigenvalue problem...
 KGrids1:  -0.43750  -0.31250  -0.18750  -0.06250   0.06250   0.18750   0.31250   0.43750 
 KGrids2:  -0.43750  -0.31250  -0.18750  -0.06250   0.06250   0.18750   0.31250   0.43750 
 KGrids3:   0.00000 
<Band_DFT>  Eigen, time=9.302289
<Band_DFT>  DM, time=0.000001
    1    C  MulP   1.9846  1.9846 sum   3.9692
    2    C  MulP   1.9943  1.9943 sum   3.9885
    3    C  MulP   1.9931  1.9931 sum   3.9863
    4    C  MulP   1.9848  1.9848 sum   3.9696
    5    C  MulP   1.9974  1.9974 sum   3.9947
    6    C  MulP   1.9808  1.9808 sum   3.9616
    7    C  MulP   1.9831  1.9831 sum   3.9661
    8    C  MulP   1.9981  1.9981 sum   3.9962
    9    C  MulP   1.9845  1.9845 sum   3.9691
   10    C  MulP   1.9875  1.9875 sum   3.9750
   11    C  MulP   1.9591  1.9591 sum   3.9182
   12    C  MulP   1.9904  1.9904 sum   3.9809
   13    C  MulP   1.9926  1.9926 sum   3.9852
   14    C  MulP   1.9824  1.9824 sum   3.9648
   15    C  MulP   1.9942  1.9942 sum   3.9885
   16    C  MulP   1.9831  1.9831 sum   3.9662
   17    C  MulP   1.9579  1.9579 sum   3.9157
   18    C  MulP   2.0945  2.0945 sum   4.1890
   19    C  MulP   2.1078  2.1078 sum   4.2156
   20    C  MulP   1.9616  1.9616 sum   3.9233
     ..........
     ......

 Sum of MulP: up   =   219.50000 down          =   219.50000
              total=   439.00000 ideal(neutral)=   439.00000
<DFT>  Total Spin Moment (muB) =  0.000000000000
<DFT>  Mixing_weight= 0.300000000000
<DFT>  Uele   = -179.770767455673  dUele     =   0.368894362384
<DFT>  NormRD =    9.788278019121  Criterion =   0.000000010000

******************* MD= 1  SCF= 4 *******************
<Poisson>  Poisson's equation using FFT...
<Set_Hamiltonian>  Hamiltonian matrix for VNA+dVH+Vxc...
<Band>  Solving the eigenvalue problem...
 KGrids1:  -0.43750  -0.31250  -0.18750  -0.06250   0.06250   0.18750   0.31250   0.43750 
 KGrids2:  -0.43750  -0.31250  -0.18750  -0.06250   0.06250   0.18750   0.31250   0.43750 
 KGrids3:   0.00000 
<Band_DFT>  Eigen, time=9.296492
<Band_DFT>  DM, time=0.000000
    1    C  MulP   1.9940  1.9940 sum   3.9879
    2    C  MulP   1.9941  1.9941 sum   3.9883
    3    C  MulP   1.9935  1.9935 sum   3.9869
    4    C  MulP   1.9922  1.9922 sum   3.9844
    5    C  MulP   1.9975  1.9975 sum   3.9951
    6    C  MulP   1.9942  1.9942 sum   3.9885
    7    C  MulP   1.9947  1.9947 sum   3.9894
    8    C  MulP   1.9982  1.9982 sum   3.9963
    9    C  MulP   1.9954  1.9954 sum   3.9907
   10    C  MulP   1.9794  1.9794 sum   3.9588
   11    C  MulP   1.9826  1.9826 sum   3.9651
   12    C  MulP   1.9775  1.9775 sum   3.9550
   13    C  MulP   1.9880  1.9880 sum   3.9759
   14    C  MulP   1.9933  1.9933 sum   3.9866
   15    C  MulP   1.9958  1.9958 sum   3.9917
   16    C  MulP   1.9947  1.9947 sum   3.9894
   17    C  MulP   2.0005  2.0005 sum   4.0010
   18    C  MulP   2.0595  2.0595 sum   4.1191
   19    C  MulP   1.9801  1.9801 sum   3.9603
   20    C  MulP   1.9800  1.9800 sum   3.9601
     ..........
     ......

 Sum of MulP: up   =   219.50000 down          =   219.50000
              total=   439.00000 ideal(neutral)=   439.00000
<DFT>  Total Spin Moment (muB) =  0.000000000000
<DFT>  Mixing_weight= 0.300000000000
<DFT>  Uele   = -190.793616230812  dUele     =  11.022848775139
<DFT>  NormRD =    6.084927381840  Criterion =   0.000000010000

******************* MD= 1  SCF= 5 *******************
<Poisson>  Poisson's equation using FFT...
<Set_Hamiltonian>  Hamiltonian matrix for VNA+dVH+Vxc...
<Band>  Solving the eigenvalue problem...
 KGrids1:  -0.43750  -0.31250  -0.18750  -0.06250   0.06250   0.18750   0.31250   0.43750 
 KGrids2:  -0.43750  -0.31250  -0.18750  -0.06250   0.06250   0.18750   0.31250   0.43750 
 KGrids3:   0.00000 
<Band_DFT>  Eigen, time=9.312860
<Band_DFT>  DM, time=0.000000
    1    C  MulP   1.9947  1.9947 sum   3.9895
    2    C  MulP   1.9924  1.9924 sum   3.9849
    3    C  MulP   1.9928  1.9928 sum   3.9856
    4    C  MulP   1.9977  1.9977 sum   3.9953
    5    C  MulP   1.9988  1.9988 sum   3.9976
    6    C  MulP   1.9954  1.9954 sum   3.9908
    7    C  MulP   1.9956  1.9956 sum   3.9913
    8    C  MulP   1.9981  1.9981 sum   3.9962
    9    C  MulP   1.9939  1.9939 sum   3.9878
   10    C  MulP   1.9759  1.9759 sum   3.9517
   11    C  MulP   1.9772  1.9772 sum   3.9544
   12    C  MulP   1.9806  1.9806 sum   3.9613
   13    C  MulP   2.0047  2.0047 sum   4.0094
   14    C  MulP   1.9961  1.9961 sum   3.9922
   15    C  MulP   1.9977  1.9977 sum   3.9954
   16    C  MulP   1.9956  1.9956 sum   3.9913
   17    C  MulP   2.0017  2.0017 sum   4.0034
   18    C  MulP   2.0390  2.0390 sum   4.0779
   19    C  MulP   2.1539  2.1539 sum   4.3077
   20    C  MulP   2.0061  2.0061 sum   4.0122
     ..........
     ......

 Sum of MulP: up   =   219.50000 down          =   219.50000
              total=   439.00000 ideal(neutral)=   439.00000
<DFT>  Total Spin Moment (muB) =  0.000000000000
<DFT>  Mixing_weight= 0.300000000000
<DFT>  Uele   = -197.960697317241  dUele     =   7.167081086429
<DFT>  NormRD =    4.106763012575  Criterion =   0.000000010000

******************* MD= 1  SCF= 6 *******************
<Poisson>  Poisson's equation using FFT...
<Set_Hamiltonian>  Hamiltonian matrix for VNA+dVH+Vxc...
<Band>  Solving the eigenvalue problem...
 KGrids1:  -0.43750  -0.31250  -0.18750  -0.06250   0.06250   0.18750   0.31250   0.43750 
 KGrids2:  -0.43750  -0.31250  -0.18750  -0.06250   0.06250   0.18750   0.31250   0.43750 
 KGrids3:   0.00000 
<Band_DFT>  Eigen, time=9.288833
<Band_DFT>  DM, time=0.000000
    1    C  MulP   1.9989  1.9989 sum   3.9978
    2    C  MulP   1.9933  1.9933 sum   3.9867
    3    C  MulP   1.9925  1.9925 sum   3.9850
    4    C  MulP   1.9872  1.9872 sum   3.9745
    5    C  MulP   1.9927  1.9927 sum   3.9853
    6    C  MulP   1.9975  1.9975 sum   3.9951
    7    C  MulP   1.9990  1.9990 sum   3.9981
    8    C  MulP   1.9973  1.9973 sum   3.9945
    9    C  MulP   1.9980  1.9980 sum   3.9959
   10    C  MulP   1.9783  1.9783 sum   3.9566
   11    C  MulP   1.9834  1.9834 sum   3.9667
   12    C  MulP   1.9676  1.9676 sum   3.9352
   13    C  MulP   1.9605  1.9605 sum   3.9211
   14    C  MulP   1.9955  1.9955 sum   3.9909
   15    C  MulP   1.9962  1.9962 sum   3.9924
   16    C  MulP   1.9990  1.9990 sum   3.9980
   17    C  MulP   2.0069  2.0069 sum   4.0139
   18    C  MulP   2.0879  2.0879 sum   4.1758
   19    C  MulP   1.7571  1.7571 sum   3.5142
   20    C  MulP   1.9395  1.9395 sum   3.8790
     ..........
     ......

 Sum of MulP: up   =   219.50000 down          =   219.50000
              total=   439.00000 ideal(neutral)=   439.00000
<DFT>  Total Spin Moment (muB) =  0.000000000000
<DFT>  Mixing_weight= 0.300000000000
<DFT>  Uele   = -202.537724020943  dUele     =   4.577026703702
<DFT>  NormRD =    3.140574667503  Criterion =   0.000000010000

******************* MD= 1  SCF= 7 *******************
<Poisson>  Poisson's equation using FFT...
<Set_Hamiltonian>  Hamiltonian matrix for VNA+dVH+Vxc...
<Band>  Solving the eigenvalue problem...
 KGrids1:  -0.43750  -0.31250  -0.18750  -0.06250   0.06250   0.18750   0.31250   0.43750 
 KGrids2:  -0.43750  -0.31250  -0.18750  -0.06250   0.06250   0.18750   0.31250   0.43750 
 KGrids3:   0.00000 
<Band_DFT>  Eigen, time=9.307564
<Band_DFT>  DM, time=0.000000
    1    C  MulP   1.9929  1.9929 sum   3.9859
    2    C  MulP   1.9943  1.9943 sum   3.9887
    3    C  MulP   1.9955  1.9955 sum   3.9911
    4    C  MulP   2.0185  2.0185 sum   4.0370
    5    C  MulP   2.0101  2.0101 sum   4.0203
    6    C  MulP   1.9977  1.9977 sum   3.9954
    7    C  MulP   1.9958  1.9958 sum   3.9916
    8    C  MulP   2.0018  2.0018 sum   4.0036
    9    C  MulP   1.9897  1.9897 sum   3.9795
   10    C  MulP   1.9727  1.9727 sum   3.9455
   11    C  MulP   1.9690  1.9690 sum   3.9380
   12    C  MulP   2.0047  2.0047 sum   4.0094
   13    C  MulP   2.0616  2.0616 sum   4.1232
   14    C  MulP   2.0035  2.0035 sum   4.0071
   15    C  MulP   2.0032  2.0032 sum   4.0064
   16    C  MulP   1.9958  1.9958 sum   3.9915
   17    C  MulP   1.9944  1.9944 sum   3.9887
   18    C  MulP   1.9554  1.9554 sum   3.9108
   19    C  MulP   2.5238  2.5238 sum   5.0477
   20    C  MulP   2.0950  2.0950 sum   4.1900
     ..........
     ......

 Sum of MulP: up   =   219.50000 down          =   219.50000
              total=   439.00000 ideal(neutral)=   439.00000
<DFT>  Total Spin Moment (muB) =  0.000000000000
<DFT>  Mixing_weight= 0.144566266464
<DFT>  Uele   = -205.972227013478  dUele     =   3.434502992535
<DFT>  NormRD =    3.256478986873  Criterion =   0.000000010000

******************* MD= 1  SCF= 8 *******************
<Poisson>  Poisson's equation using FFT...
<Set_Hamiltonian>  Hamiltonian matrix for VNA+dVH+Vxc...
<Band>  Solving the eigenvalue problem...
 KGrids1:  -0.43750  -0.31250  -0.18750  -0.06250   0.06250   0.18750   0.31250   0.43750 
 KGrids2:  -0.43750  -0.31250  -0.18750  -0.06250   0.06250   0.18750   0.31250   0.43750 
 KGrids3:   0.00000 
<Band_DFT>  Eigen, time=9.296214
<Band_DFT>  DM, time=0.000000
    1    C  MulP   1.9988  1.9988 sum   3.9977
    2    C  MulP   1.9932  1.9932 sum   3.9864
    3    C  MulP   1.9937  1.9937 sum   3.9873
    4    C  MulP   1.9893  1.9893 sum   3.9786
    5    C  MulP   1.9944  1.9944 sum   3.9888
    6    C  MulP   1.9970  1.9970 sum   3.9941
    7    C  MulP   1.9982  1.9982 sum   3.9965
    8    C  MulP   1.9979  1.9979 sum   3.9957
    9    C  MulP   1.9989  1.9989 sum   3.9978
   10    C  MulP   1.9788  1.9788 sum   3.9576
   11    C  MulP   1.9735  1.9735 sum   3.9470
   12    C  MulP   1.9700  1.9700 sum   3.9399
   13    C  MulP   1.9749  1.9749 sum   3.9498
   14    C  MulP   1.9950  1.9950 sum   3.9899
   15    C  MulP   1.9968  1.9968 sum   3.9935
   16    C  MulP   1.9983  1.9983 sum   3.9965
   17    C  MulP   2.0065  2.0065 sum   4.0131
   18    C  MulP   2.1256  2.1256 sum   4.2511
   19    C  MulP   1.9161  1.9161 sum   3.8323
   20    C  MulP   1.9519  1.9519 sum   3.9038
     ..........
     ......

 Sum of MulP: up   =   219.50000 down          =   219.50000
              total=   439.00000 ideal(neutral)=   439.00000
<DFT>  Total Spin Moment (muB) =  0.000000000000
<DFT>  Mixing_weight= 0.208254184440
<DFT>  Uele   = -206.541205678097  dUele     =   0.568978664619
<DFT>  NormRD =    1.800859941605  Criterion =   0.000000010000

******************* MD= 1  SCF= 9 *******************
<Poisson>  Poisson's equation using FFT...
<Set_Hamiltonian>  Hamiltonian matrix for VNA+dVH+Vxc...
<Band>  Solving the eigenvalue problem...
 KGrids1:  -0.43750  -0.31250  -0.18750  -0.06250   0.06250   0.18750   0.31250   0.43750 
 KGrids2:  -0.43750  -0.31250  -0.18750  -0.06250   0.06250   0.18750   0.31250   0.43750 
 KGrids3:   0.00000 
<Band_DFT>  Eigen, time=9.296222
<Band_DFT>  DM, time=0.000001
    1    C  MulP   1.9956  1.9956 sum   3.9911
    2    C  MulP   1.9936  1.9936 sum   3.9872
    3    C  MulP   1.9927  1.9927 sum   3.9853
    4    C  MulP   2.0050  2.0050 sum   4.0100
    5    C  MulP   2.0029  2.0029 sum   4.0058
    6    C  MulP   1.9969  1.9969 sum   3.9937
    7    C  MulP   1.9966  1.9966 sum   3.9932
    8    C  MulP   1.9993  1.9993 sum   3.9986
    9    C  MulP   1.9905  1.9905 sum   3.9810
   10    C  MulP   1.9723  1.9723 sum   3.9447
   11    C  MulP   1.9757  1.9757 sum   3.9514
   12    C  MulP   1.9865  1.9865 sum   3.9729
   13    C  MulP   2.0193  2.0193 sum   4.0387
   14    C  MulP   1.9985  1.9985 sum   3.9970
   15    C  MulP   2.0002  2.0002 sum   4.0004
   16    C  MulP   1.9966  1.9966 sum   3.9932
   17    C  MulP   1.9985  1.9985 sum   3.9970
   18    C  MulP   1.9532  1.9532 sum   3.9064
   19    C  MulP   2.2161  2.2161 sum   4.4323
   20    C  MulP   2.0201  2.0201 sum   4.0402
     ..........
     ......

 Sum of MulP: up   =   219.50000 down          =   219.50000
              total=   439.00000 ideal(neutral)=   439.00000
<DFT>  Total Spin Moment (muB) =  0.000000000000
<DFT>  Mixing_weight= 0.300000000000
<DFT>  Uele   = -207.903315915137  dUele     =   1.362110237040
<DFT>  NormRD =    1.689427028593  Criterion =   0.000000010000

******************* MD= 1  SCF=10 *******************
<Poisson>  Poisson's equation using FFT...
<Set_Hamiltonian>  Hamiltonian matrix for VNA+dVH+Vxc...
<Band>  Solving the eigenvalue problem...
 KGrids1:  -0.43750  -0.31250  -0.18750  -0.06250   0.06250   0.18750   0.31250   0.43750 
 KGrids2:  -0.43750  -0.31250  -0.18750  -0.06250   0.06250   0.18750   0.31250   0.43750 
 KGrids3:   0.00000 
<Band_DFT>  Eigen, time=9.296669
<Band_DFT>  DM, time=0.000000
    1    C  MulP   2.0018  2.0018 sum   4.0037
    2    C  MulP   1.9944  1.9944 sum   3.9888
    3    C  MulP   1.9954  1.9954 sum   3.9908
    4    C  MulP   1.9788  1.9788 sum   3.9575
    5    C  MulP   1.9904  1.9904 sum   3.9809
    6    C  MulP   2.0009  2.0009 sum   4.0019
    7    C  MulP   2.0029  2.0029 sum   4.0058
    8    C  MulP   1.9978  1.9978 sum   3.9956
    9    C  MulP   2.0070  2.0070 sum   4.0140
   10    C  MulP   1.9816  1.9816 sum   3.9632
   11    C  MulP   1.9700  1.9700 sum   3.9400
   12    C  MulP   1.9554  1.9554 sum   3.9108
   13    C  MulP   1.9375  1.9375 sum   3.8751
   14    C  MulP   1.9967  1.9967 sum   3.9934
   15    C  MulP   1.9964  1.9964 sum   3.9928
   16    C  MulP   2.0029  2.0029 sum   4.0057
   17    C  MulP   2.0286  2.0286 sum   4.0572
   18    C  MulP   2.2693  2.2693 sum   4.5385
   19    C  MulP   1.5814  1.5814 sum   3.1627
   20    C  MulP   1.9108  1.9108 sum   3.8217
     ..........
     ......

 Sum of MulP: up   =   219.50000 down          =   219.50000
              total=   439.00000 ideal(neutral)=   439.00000
<DFT>  Total Spin Moment (muB) =  0.000000000000
<DFT>  Mixing_weight= 0.066737981473
<DFT>  Uele   = -209.082153053166  dUele     =   1.178837138029
<DFT>  NormRD =    3.158456640489  Criterion =   0.000000010000

******************* MD= 1  SCF=11 *******************
<Poisson>  Poisson's equation using FFT...
<Set_Hamiltonian>  Hamiltonian matrix for VNA+dVH+Vxc...
<Band>  Solving the eigenvalue problem...
 KGrids1:  -0.43750  -0.31250  -0.18750  -0.06250   0.06250   0.18750   0.31250   0.43750 
 KGrids2:  -0.43750  -0.31250  -0.18750  -0.06250   0.06250   0.18750   0.31250   0.43750 
 KGrids3:   0.00000 
<Band_DFT>  Eigen, time=9.302911
<Band_DFT>  DM, time=0.000000
    1    C  MulP   1.9992  1.9992 sum   3.9983
    2    C  MulP   1.9932  1.9932 sum   3.9864
    3    C  MulP   1.9946  1.9946 sum   3.9892
    4    C  MulP   1.9944  1.9944 sum   3.9887
    5    C  MulP   1.9967  1.9967 sum   3.9933
    6    C  MulP   1.9974  1.9974 sum   3.9948
    7    C  MulP   1.9981  1.9981 sum   3.9962
    8    C  MulP   1.9989  1.9989 sum   3.9978
    9    C  MulP   1.9993  1.9993 sum   3.9985
   10    C  MulP   1.9801  1.9801 sum   3.9602
   11    C  MulP   1.9733  1.9733 sum   3.9465
   12    C  MulP   1.9738  1.9738 sum   3.9476
   13    C  MulP   1.9858  1.9858 sum   3.9716
   14    C  MulP   1.9966  1.9966 sum   3.9931
   15    C  MulP   1.9979  1.9979 sum   3.9959
   16    C  MulP   1.9981  1.9981 sum   3.9962
   17    C  MulP   2.0016  2.0016 sum   4.0033
   18    C  MulP   2.1353  2.1353 sum   4.2707
   19    C  MulP   1.9777  1.9777 sum   3.9555
   20    C  MulP   1.9711  1.9711 sum   3.9422
     ..........
     ......

 Sum of MulP: up   =   219.50000 down          =   219.50000
              total=   439.00000 ideal(neutral)=   439.00000
<DFT>  Total Spin Moment (muB) =  0.000000000000
<DFT>  Mixing_weight= 0.073733011600
<DFT>  Uele   = -209.382988723373  dUele     =   0.300835670207
<DFT>  NormRD =    0.972833970660  Criterion =   0.000000010000

******************* MD= 1  SCF=12 *******************
<Poisson>  Poisson's equation using FFT...
<Set_Hamiltonian>  Hamiltonian matrix for VNA+dVH+Vxc...
<Band>  Solving the eigenvalue problem...
 KGrids1:  -0.43750  -0.31250  -0.18750  -0.06250   0.06250   0.18750   0.31250   0.43750 
 KGrids2:  -0.43750  -0.31250  -0.18750  -0.06250   0.06250   0.18750   0.31250   0.43750 
 KGrids3:   0.00000 
<Band_DFT>  Eigen, time=9.291657
<Band_DFT>  DM, time=0.000000
    1    C  MulP   1.9981  1.9981 sum   3.9962
    2    C  MulP   1.9938  1.9938 sum   3.9875
    3    C  MulP   1.9939  1.9939 sum   3.9879
    4    C  MulP   1.9978  1.9978 sum   3.9956
    5    C  MulP   1.9985  1.9985 sum   3.9971
    6    C  MulP   1.9975  1.9975 sum   3.9950
    7    C  MulP   1.9979  1.9979 sum   3.9957
    8    C  MulP   1.9991  1.9991 sum   3.9982
    9    C  MulP   1.9966  1.9966 sum   3.9931
   10    C  MulP   1.9766  1.9766 sum   3.9532
   11    C  MulP   1.9723  1.9723 sum   3.9445
   12    C  MulP   1.9772  1.9772 sum   3.9544
   13    C  MulP   1.9951  1.9951 sum   3.9901
   14    C  MulP   1.9973  1.9973 sum   3.9946
   15    C  MulP   1.9988  1.9988 sum   3.9975
   16    C  MulP   1.9979  1.9979 sum   3.9958
   17    C  MulP   2.0008  2.0008 sum   4.0016
   18    C  MulP   2.0730  2.0730 sum   4.1460
   19    C  MulP   2.0340  2.0340 sum   4.0680
   20    C  MulP   1.9846  1.9846 sum   3.9693
     ..........
     ......

 Sum of MulP: up   =   219.50000 down          =   219.50000
              total=   439.00000 ideal(neutral)=   439.00000
<DFT>  Total Spin Moment (muB) =  0.000000000000
<DFT>  Mixing_weight= 0.190030009228
<DFT>  Uele   = -209.630276642722  dUele     =   0.247287919348
<DFT>  NormRD =    0.761047711219  Criterion =   0.000000010000

******************* MD= 1  SCF=13 *******************
<Poisson>  Poisson's equation using FFT...
<Set_Hamiltonian>  Hamiltonian matrix for VNA+dVH+Vxc...
<Band>  Solving the eigenvalue problem...
 KGrids1:  -0.43750  -0.31250  -0.18750  -0.06250   0.06250   0.18750   0.31250   0.43750 
 KGrids2:  -0.43750  -0.31250  -0.18750  -0.06250   0.06250   0.18750   0.31250   0.43750 
 KGrids3:   0.00000 
<Band_DFT>  Eigen, time=9.290832
<Band_DFT>  DM, time=0.000001
    1    C  MulP   1.9976  1.9976 sum   3.9953
    2    C  MulP   1.9941  1.9941 sum   3.9882
    3    C  MulP   1.9935  1.9935 sum   3.9870
    4    C  MulP   1.9984  1.9984 sum   3.9969
    5    C  MulP   1.9990  1.9990 sum   3.9981
    6    C  MulP   1.9975  1.9975 sum   3.9951
    7    C  MulP   1.9979  1.9979 sum   3.9958
    8    C  MulP   1.9991  1.9991 sum   3.9982
    9    C  MulP   1.9949  1.9949 sum   3.9899
   10    C  MulP   1.9750  1.9750 sum   3.9500
   11    C  MulP   1.9732  1.9732 sum   3.9463
   12    C  MulP   1.9781  1.9781 sum   3.9563
   13    C  MulP   1.9968  1.9968 sum   3.9937
   14    C  MulP   1.9976  1.9976 sum   3.9951
   15    C  MulP   1.9991  1.9991 sum   3.9982
   16    C  MulP   1.9979  1.9979 sum   3.9958
   17    C  MulP   2.0013  2.0013 sum   4.0026
   18    C  MulP   2.0390  2.0390 sum   4.0780
   19    C  MulP   2.0509  2.0509 sum   4.1017
   20    C  MulP   1.9882  1.9882 sum   3.9765
     ..........
     ......

 Sum of MulP: up   =   219.50000 down          =   219.50000
              total=   439.00000 ideal(neutral)=   439.00000
<DFT>  Total Spin Moment (muB) =  0.000000000000
<DFT>  Mixing_weight= 0.300000000000
<DFT>  Uele   = -210.177021919337  dUele     =   0.546745276615
<DFT>  NormRD =    0.602420486181  Criterion =   0.000000010000

******************* MD= 1  SCF=14 *******************
<Poisson>  Poisson's equation using FFT...
<Set_Hamiltonian>  Hamiltonian matrix for VNA+dVH+Vxc...
<Band>  Solving the eigenvalue problem...
 KGrids1:  -0.43750  -0.31250  -0.18750  -0.06250   0.06250   0.18750   0.31250   0.43750 
 KGrids2:  -0.43750  -0.31250  -0.18750  -0.06250   0.06250   0.18750   0.31250   0.43750 
 KGrids3:   0.00000 
<Band_DFT>  Eigen, time=9.302635
<Band_DFT>  DM, time=0.000000
    1    C  MulP   1.9981  1.9981 sum   3.9963
    2    C  MulP   1.9939  1.9939 sum   3.9878
    3    C  MulP   1.9942  1.9942 sum   3.9885
    4    C  MulP   1.9963  1.9963 sum   3.9925
    5    C  MulP   1.9981  1.9981 sum   3.9961
    6    C  MulP   1.9977  1.9977 sum   3.9954
    7    C  MulP   1.9983  1.9983 sum   3.9966
    8    C  MulP   1.9991  1.9991 sum   3.9981
    9    C  MulP   1.9966  1.9966 sum   3.9932
   10    C  MulP   1.9767  1.9767 sum   3.9533
   11    C  MulP   1.9713  1.9713 sum   3.9426
   12    C  MulP   1.9752  1.9752 sum   3.9503
   13    C  MulP   1.9914  1.9914 sum   3.9828
   14    C  MulP   1.9975  1.9975 sum   3.9950
   15    C  MulP   1.9988  1.9988 sum   3.9977
   16    C  MulP   1.9983  1.9983 sum   3.9966
   17    C  MulP   2.0037  2.0037 sum   4.0075
   18    C  MulP   2.0761  2.0761 sum   4.1522
   19    C  MulP   2.0184  2.0184 sum   4.0368
   20    C  MulP   1.9834  1.9834 sum   3.9669
     ..........
     ......

 Sum of MulP: up   =   219.50000 down          =   219.50000
              total=   439.00000 ideal(neutral)=   439.00000
<DFT>  Total Spin Moment (muB) =  0.000000000000
<DFT>  Mixing_weight= 0.300000000000
<DFT>  Uele   = -210.890178286812  dUele     =   0.713156367475
<DFT>  NormRD =    0.471619668846  Criterion =   0.000000010000

******************* MD= 1  SCF=15 *******************
<Poisson>  Poisson's equation using FFT...
<Set_Hamiltonian>  Hamiltonian matrix for VNA+dVH+Vxc...
<Band>  Solving the eigenvalue problem...
 KGrids1:  -0.43750  -0.31250  -0.18750  -0.06250   0.06250   0.18750   0.31250   0.43750 
 KGrids2:  -0.43750  -0.31250  -0.18750  -0.06250   0.06250   0.18750   0.31250   0.43750 
 KGrids3:   0.00000 
<Band_DFT>  Eigen, time=9.291282
<Band_DFT>  DM, time=0.000000
    1    C  MulP   1.9973  1.9973 sum   3.9946
    2    C  MulP   1.9943  1.9943 sum   3.9887
    3    C  MulP   1.9933  1.9933 sum   3.9865
    4    C  MulP   2.0018  2.0018 sum   4.0037
    5    C  MulP   2.0011  2.0011 sum   4.0023
    6    C  MulP   1.9978  1.9978 sum   3.9956
    7    C  MulP   1.9978  1.9978 sum   3.9957
    8    C  MulP   1.9995  1.9995 sum   3.9990
    9    C  MulP   1.9937  1.9937 sum   3.9873
   10    C  MulP   1.9740  1.9740 sum   3.9480
   11    C  MulP   1.9749  1.9749 sum   3.9497
   12    C  MulP   1.9823  1.9823 sum   3.9646
   13    C  MulP   2.0061  2.0061 sum   4.0122
   14    C  MulP   1.9984  1.9984 sum   3.9969
   15    C  MulP   2.0000  2.0000 sum   4.0000
   16    C  MulP   1.9979  1.9979 sum   3.9958
   17    C  MulP   2.0011  2.0011 sum   4.0022
   18    C  MulP   2.0075  2.0075 sum   4.0149
   19    C  MulP   2.1173  2.1173 sum   4.2345
   20    C  MulP   2.0011  2.0011 sum   4.0023
     ..........
     ......

 Sum of MulP: up   =   219.50000 down          =   219.50000
              total=   439.00000 ideal(neutral)=   439.00000
<DFT>  Total Spin Moment (muB) =  0.000000000000
<DFT>  Mixing_weight= 0.030000000000
<DFT>  Uele   = -211.494838635161  dUele     =   0.604660348350
<DFT>  NormRD =    0.640669624806  Criterion =   0.000000010000

******************* MD= 1  SCF=16 *******************
<Poisson>  Poisson's equation using FFT...
<Set_Hamiltonian>  Hamiltonian matrix for VNA+dVH+Vxc...
<Band>  Solving the eigenvalue problem...
 KGrids1:  -0.43750  -0.31250  -0.18750  -0.06250   0.06250   0.18750   0.31250   0.43750 
 KGrids2:  -0.43750  -0.31250  -0.18750  -0.06250   0.06250   0.18750   0.31250   0.43750 
 KGrids3:   0.00000 
<Band_DFT>  Eigen, time=9.297346
<Band_DFT>  DM, time=0.000000
    1    C  MulP   1.9993  1.9993 sum   3.9986
    2    C  MulP   1.9942  1.9942 sum   3.9884
    3    C  MulP   1.9946  1.9946 sum   3.9892
    4    C  MulP   1.9929  1.9929 sum   3.9858
    5    C  MulP   1.9970  1.9970 sum   3.9941
    6    C  MulP   1.9989  1.9989 sum   3.9978
    7    C  MulP   1.9999  1.9999 sum   3.9998
    8    C  MulP   1.9996  1.9996 sum   3.9993
    9    C  MulP   1.9975  1.9975 sum   3.9951
   10    C  MulP   1.9771  1.9771 sum   3.9542
   11    C  MulP   1.9679  1.9679 sum   3.9358
   12    C  MulP   1.9692  1.9692 sum   3.9385
   13    C  MulP   1.9808  1.9808 sum   3.9615
   14    C  MulP   1.9971  1.9971 sum   3.9942
   15    C  MulP   1.9987  1.9987 sum   3.9975
   16    C  MulP   1.9998  1.9998 sum   3.9996
   17    C  MulP   2.0078  2.0078 sum   4.0156
   18    C  MulP   2.0671  2.0671 sum   4.1343
   19    C  MulP   1.9405  1.9405 sum   3.8809
   20    C  MulP   1.9691  1.9691 sum   3.9381
     ..........
     ......

 Sum of MulP: up   =   219.50000 down          =   219.50000
              total=   439.00000 ideal(neutral)=   439.00000
<DFT>  Total Spin Moment (muB) =  0.000000000000
<DFT>  Mixing_weight= 0.030000000000
<DFT>  Uele   = -212.832755683016  dUele     =   1.337917047855
<DFT>  NormRD =    0.782677393703  Criterion =   0.000000010000

******************* MD= 1  SCF=17 *******************
<Poisson>  Poisson's equation using FFT...
<Set_Hamiltonian>  Hamiltonian matrix for VNA+dVH+Vxc...
<Band>  Solving the eigenvalue problem...
 KGrids1:  -0.43750  -0.31250  -0.18750  -0.06250   0.06250   0.18750   0.31250   0.43750 
 KGrids2:  -0.43750  -0.31250  -0.18750  -0.06250   0.06250   0.18750   0.31250   0.43750 
 KGrids3:   0.00000 
<Band_DFT>  Eigen, time=9.304938
<Band_DFT>  DM, time=0.000000
    1    C  MulP   1.9982  1.9982 sum   3.9963
    2    C  MulP   1.9937  1.9937 sum   3.9874
    3    C  MulP   1.9946  1.9946 sum   3.9892
    4    C  MulP   1.9988  1.9988 sum   3.9977
    5    C  MulP   1.9993  1.9993 sum   3.9987
    6    C  MulP   1.9973  1.9973 sum   3.9946
    7    C  MulP   1.9979  1.9979 sum   3.9957
    8    C  MulP   2.0001  2.0001 sum   4.0002
    9    C  MulP   1.9987  1.9987 sum   3.9974
   10    C  MulP   1.9788  1.9788 sum   3.9576
   11    C  MulP   1.9686  1.9686 sum   3.9372
   12    C  MulP   1.9777  1.9777 sum   3.9554
   13    C  MulP   2.0011  2.0011 sum   4.0023
   14    C  MulP   1.9990  1.9990 sum   3.9979
   15    C  MulP   1.9994  1.9994 sum   3.9988
   16    C  MulP   1.9976  1.9976 sum   3.9952
   17    C  MulP   2.0019  2.0019 sum   4.0039
   18    C  MulP   2.1113  2.1113 sum   4.2225
   19    C  MulP   2.0745  2.0745 sum   4.1489
   20    C  MulP   2.0014  2.0014 sum   4.0028
     ..........
     ......

 Sum of MulP: up   =   219.50000 down          =   219.50000
              total=   439.00000 ideal(neutral)=   439.00000
<DFT>  Total Spin Moment (muB) =  0.000000000000
<DFT>  Mixing_weight= 0.030000000000
<DFT>  Uele   = -213.368018600882  dUele     =   0.535262917866
<DFT>  NormRD =    0.957932472978  Criterion =   0.000000010000

******************* MD= 1  SCF=18 *******************
<Poisson>  Poisson's equation using FFT...
<Set_Hamiltonian>  Hamiltonian matrix for VNA+dVH+Vxc...
<Band>  Solving the eigenvalue problem...
 KGrids1:  -0.43750  -0.31250  -0.18750  -0.06250   0.06250   0.18750   0.31250   0.43750 
 KGrids2:  -0.43750  -0.31250  -0.18750  -0.06250   0.06250   0.18750   0.31250   0.43750 
 KGrids3:   0.00000 
<Band_DFT>  Eigen, time=9.290250
<Band_DFT>  DM, time=0.000001
    1    C  MulP   1.9985  1.9985 sum   3.9971
    2    C  MulP   1.9942  1.9942 sum   3.9884
    3    C  MulP   1.9950  1.9950 sum   3.9900
    4    C  MulP   2.0018  2.0018 sum   4.0035
    5    C  MulP   2.0000  2.0000 sum   3.9999
    6    C  MulP   1.9961  1.9961 sum   3.9922
    7    C  MulP   1.9956  1.9956 sum   3.9912
    8    C  MulP   1.9982  1.9982 sum   3.9964
    9    C  MulP   1.9994  1.9994 sum   3.9988
   10    C  MulP   1.9811  1.9811 sum   3.9622
   11    C  MulP   1.9789  1.9789 sum   3.9578
   12    C  MulP   1.9850  1.9850 sum   3.9700
   13    C  MulP   2.0046  2.0046 sum   4.0092
   14    C  MulP   1.9984  1.9984 sum   3.9968
   15    C  MulP   1.9990  1.9990 sum   3.9981
   16    C  MulP   1.9972  1.9972 sum   3.9944
   17    C  MulP   2.0018  2.0018 sum   4.0037
   18    C  MulP   2.1672  2.1672 sum   4.3344
   19    C  MulP   2.1131  2.1131 sum   4.2263
   20    C  MulP   1.9961  1.9961 sum   3.9922
     ..........
     ......

 Sum of MulP: up   =   219.50000 down          =   219.50000
              total=   439.00000 ideal(neutral)=   439.00000
<DFT>  Total Spin Moment (muB) =  0.000000000000
<DFT>  Mixing_weight= 0.030000000000
<DFT>  Uele   = -213.986096346605  dUele     =   0.618077745722
<DFT>  NormRD =    0.829834265489  Criterion =   0.000000010000

******************* MD= 1  SCF=19 *******************
<Poisson>  Poisson's equation using FFT...
<Set_Hamiltonian>  Hamiltonian matrix for VNA+dVH+Vxc...
<Band>  Solving the eigenvalue problem...
 KGrids1:  -0.43750  -0.31250  -0.18750  -0.06250   0.06250   0.18750   0.31250   0.43750 
 KGrids2:  -0.43750  -0.31250  -0.18750  -0.06250   0.06250   0.18750   0.31250   0.43750 
 KGrids3:   0.00000 
<Band_DFT>  Eigen, time=9.302518
<Band_DFT>  DM, time=0.000000
    1    C  MulP   1.9965  1.9965 sum   3.9931
    2    C  MulP   1.9945  1.9945 sum   3.9890
    3    C  MulP   1.9944  1.9944 sum   3.9888
    4    C  MulP   2.0017  2.0017 sum   4.0034
    5    C  MulP   2.0006  2.0006 sum   4.0013
    6    C  MulP   1.9974  1.9974 sum   3.9948
    7    C  MulP   1.9971  1.9971 sum   3.9943
    8    C  MulP   1.9986  1.9986 sum   3.9972
    9    C  MulP   1.9935  1.9935 sum   3.9871
   10    C  MulP   1.9729  1.9729 sum   3.9458
   11    C  MulP   1.9723  1.9723 sum   3.9445
   12    C  MulP   1.9825  1.9825 sum   3.9649
   13    C  MulP   2.0038  2.0038 sum   4.0077
   14    C  MulP   1.9988  1.9988 sum   3.9976
   15    C  MulP   1.9997  1.9997 sum   3.9995
   16    C  MulP   1.9971  1.9971 sum   3.9941
   17    C  MulP   1.9983  1.9983 sum   3.9966
   18    C  MulP   2.0364  2.0364 sum   4.0727
   19    C  MulP   2.0722  2.0722 sum   4.1445
   20    C  MulP   1.9971  1.9971 sum   3.9942
     ..........
     ......

 Sum of MulP: up   =   219.50000 down          =   219.50000
              total=   439.00000 ideal(neutral)=   439.00000
<DFT>  Total Spin Moment (muB) =  0.000000000000
<DFT>  Mixing_weight= 0.030000000000
<DFT>  Uele   = -214.091185695141  dUele     =   0.105089348537
<DFT>  NormRD =    0.327791148383  Criterion =   0.000000010000

******************* MD= 1  SCF=20 *******************
<Poisson>  Poisson's equation using FFT...
<Set_Hamiltonian>  Hamiltonian matrix for VNA+dVH+Vxc...
<Band>  Solving the eigenvalue problem...
 KGrids1:  -0.43750  -0.31250  -0.18750  -0.06250   0.06250   0.18750   0.31250   0.43750 
 KGrids2:  -0.43750  -0.31250  -0.18750  -0.06250   0.06250   0.18750   0.31250   0.43750 
 KGrids3:   0.00000 
<Band_DFT>  Eigen, time=9.308717
<Band_DFT>  DM, time=0.000000
    1    C  MulP   1.9981  1.9981 sum   3.9961
    2    C  MulP   1.9945  1.9945 sum   3.9889
    3    C  MulP   1.9943  1.9943 sum   3.9886
    4    C  MulP   2.0000  2.0000 sum   3.9999
    5    C  MulP   1.9998  1.9998 sum   3.9996
    6    C  MulP   1.9977  1.9977 sum   3.9953
    7    C  MulP   1.9980  1.9980 sum   3.9960
    8    C  MulP   1.9992  1.9992 sum   3.9984
    9    C  MulP   1.9955  1.9955 sum   3.9910
   10    C  MulP   1.9761  1.9761 sum   3.9522
   11    C  MulP   1.9747  1.9747 sum   3.9493
   12    C  MulP   1.9809  1.9809 sum   3.9617
   13    C  MulP   2.0001  2.0001 sum   4.0003
   14    C  MulP   1.9983  1.9983 sum   3.9965
   15    C  MulP   1.9996  1.9996 sum   3.9992
   16    C  MulP   1.9981  1.9981 sum   3.9963
   17    C  MulP   2.0024  2.0024 sum   4.0047
   18    C  MulP   2.0526  2.0526 sum   4.1051
   19    C  MulP   2.0702  2.0702 sum   4.1404
   20    C  MulP   1.9922  1.9922 sum   3.9845
     ..........
     ......

 Sum of MulP: up   =   219.50000 down          =   219.50000
              total=   439.00000 ideal(neutral)=   439.00000
<DFT>  Total Spin Moment (muB) =  0.000000000000
<DFT>  Mixing_weight= 0.030000000000
<DFT>  Uele   = -214.111763142908  dUele     =   0.020577447767
<DFT>  NormRD =    0.239091143402  Criterion =   0.000000010000

******************* MD= 1  SCF=21 *******************
<Poisson>  Poisson's equation using FFT...
<Set_Hamiltonian>  Hamiltonian matrix for VNA+dVH+Vxc...
<Band>  Solving the eigenvalue problem...
 KGrids1:  -0.43750  -0.31250  -0.18750  -0.06250   0.06250   0.18750   0.31250   0.43750 
 KGrids2:  -0.43750  -0.31250  -0.18750  -0.06250   0.06250   0.18750   0.31250   0.43750 
 KGrids3:   0.00000 
<Band_DFT>  Eigen, time=9.296896
<Band_DFT>  DM, time=0.000000
    1    C  MulP   1.9981  1.9981 sum   3.9963
    2    C  MulP   1.9942  1.9942 sum   3.9884
    3    C  MulP   1.9940  1.9940 sum   3.9880
    4    C  MulP   1.9985  1.9985 sum   3.9969
    5    C  MulP   1.9992  1.9992 sum   3.9984
    6    C  MulP   1.9980  1.9980 sum   3.9961
    7    C  MulP   1.9985  1.9985 sum   3.9970
    8    C  MulP   1.9996  1.9996 sum   3.9991
    9    C  MulP   1.9956  1.9956 sum   3.9912
   10    C  MulP   1.9758  1.9758 sum   3.9515
   11    C  MulP   1.9716  1.9716 sum   3.9433
   12    C  MulP   1.9779  1.9779 sum   3.9558
   13    C  MulP   1.9972  1.9972 sum   3.9943
   14    C  MulP   1.9980  1.9980 sum   3.9961
   15    C  MulP   1.9995  1.9995 sum   3.9990
   16    C  MulP   1.9985  1.9985 sum   3.9969
   17    C  MulP   2.0020  2.0020 sum   4.0041
   18    C  MulP   2.0438  2.0438 sum   4.0876
   19    C  MulP   2.0584  2.0584 sum   4.1168
   20    C  MulP   1.9907  1.9907 sum   3.9813
     ..........
     ......

 Sum of MulP: up   =   219.50000 down          =   219.50000
              total=   439.00000 ideal(neutral)=   439.00000
<DFT>  Total Spin Moment (muB) =  0.000000000000
<DFT>  Mixing_weight= 0.030000000000
<DFT>  Uele   = -214.137706196986  dUele     =   0.025943054078
<DFT>  NormRD =    0.110883719247  Criterion =   0.000000010000

******************* MD= 1  SCF=22 *******************
<Poisson>  Poisson's equation using FFT...
<Set_Hamiltonian>  Hamiltonian matrix for VNA+dVH+Vxc...
<Band>  Solving the eigenvalue problem...
 KGrids1:  -0.43750  -0.31250  -0.18750  -0.06250   0.06250   0.18750   0.31250   0.43750 
 KGrids2:  -0.43750  -0.31250  -0.18750  -0.06250   0.06250   0.18750   0.31250   0.43750 
 KGrids3:   0.00000 
<Band_DFT>  Eigen, time=9.294369
<Band_DFT>  DM, time=0.000000
    1    C  MulP   1.9982  1.9982 sum   3.9965
    2    C  MulP   1.9943  1.9943 sum   3.9886
    3    C  MulP   1.9940  1.9940 sum   3.9881
    4    C  MulP   1.9983  1.9983 sum   3.9966
    5    C  MulP   1.9992  1.9992 sum   3.9984
    6    C  MulP   1.9981  1.9981 sum   3.9963
    7    C  MulP   1.9986  1.9986 sum   3.9971
    8    C  MulP   1.9995  1.9995 sum   3.9991
    9    C  MulP   1.9965  1.9965 sum   3.9930
   10    C  MulP   1.9764  1.9764 sum   3.9527
   11    C  MulP   1.9720  1.9720 sum   3.9441
   12    C  MulP   1.9777  1.9777 sum   3.9554
   13    C  MulP   1.9960  1.9960 sum   3.9919
   14    C  MulP   1.9980  1.9980 sum   3.9960
   15    C  MulP   1.9995  1.9995 sum   3.9989
   16    C  MulP   1.9985  1.9985 sum   3.9971
   17    C  MulP   2.0032  2.0032 sum   4.0063
   18    C  MulP   2.0611  2.0611 sum   4.1221
   19    C  MulP   2.0467  2.0467 sum   4.0933
   20    C  MulP   1.9886  1.9886 sum   3.9772
     ..........
     ......

 Sum of MulP: up   =   219.50000 down          =   219.50000
              total=   439.00000 ideal(neutral)=   439.00000
<DFT>  Total Spin Moment (muB) =  0.000000000000
<DFT>  Mixing_weight= 0.030000000000
<DFT>  Uele   = -214.147083919481  dUele     =   0.009377722495
<DFT>  NormRD =    0.075216546181  Criterion =   0.000000010000

******************* MD= 1  SCF=23 *******************
<Poisson>  Poisson's equation using FFT...
<Set_Hamiltonian>  Hamiltonian matrix for VNA+dVH+Vxc...
<Band>  Solving the eigenvalue problem...
 KGrids1:  -0.43750  -0.31250  -0.18750  -0.06250   0.06250   0.18750   0.31250   0.43750 
 KGrids2:  -0.43750  -0.31250  -0.18750  -0.06250   0.06250   0.18750   0.31250   0.43750 
 KGrids3:   0.00000 
<Band_DFT>  Eigen, time=9.300116
<Band_DFT>  DM, time=0.000001
    1    C  MulP   1.9977  1.9977 sum   3.9954
    2    C  MulP   1.9942  1.9942 sum   3.9885
    3    C  MulP   1.9943  1.9943 sum   3.9886
    4    C  MulP   1.9994  1.9994 sum   3.9988
    5    C  MulP   1.9999  1.9999 sum   3.9998
    6    C  MulP   1.9978  1.9978 sum   3.9957
    7    C  MulP   1.9980  1.9980 sum   3.9959
    8    C  MulP   1.9992  1.9992 sum   3.9983
    9    C  MulP   1.9955  1.9955 sum   3.9910
   10    C  MulP   1.9757  1.9757 sum   3.9514
   11    C  MulP   1.9718  1.9718 sum   3.9436
   12    C  MulP   1.9786  1.9786 sum   3.9572
   13    C  MulP   1.9988  1.9988 sum   3.9975
   14    C  MulP   1.9985  1.9985 sum   3.9970
   15    C  MulP   1.9996  1.9996 sum   3.9992
   16    C  MulP   1.9981  1.9981 sum   3.9962
   17    C  MulP   2.0030  2.0030 sum   4.0059
   18    C  MulP   2.0534  2.0534 sum   4.1067
   19    C  MulP   2.0538  2.0538 sum   4.1077
   20    C  MulP   1.9927  1.9927 sum   3.9855
     ..........
     ......

 Sum of MulP: up   =   219.50000 down          =   219.50000
              total=   439.00000 ideal(neutral)=   439.00000
<DFT>  Total Spin Moment (muB) =  0.000000000000
<DFT>  Mixing_weight= 0.030000000000
<DFT>  Uele   = -214.170192824748  dUele     =   0.023108905267
<DFT>  NormRD =    0.076792578697  Criterion =   0.000000010000

******************* MD= 1  SCF=24 *******************
<Poisson>  Poisson's equation using FFT...
<Set_Hamiltonian>  Hamiltonian matrix for VNA+dVH+Vxc...
<Band>  Solving the eigenvalue problem...
 KGrids1:  -0.43750  -0.31250  -0.18750  -0.06250   0.06250   0.18750   0.31250   0.43750 
 KGrids2:  -0.43750  -0.31250  -0.18750  -0.06250   0.06250   0.18750   0.31250   0.43750 
 KGrids3:   0.00000 
<Band_DFT>  Eigen, time=9.301482
<Band_DFT>  DM, time=0.000001
    1    C  MulP   1.9980  1.9980 sum   3.9959
    2    C  MulP   1.9943  1.9943 sum   3.9886
    3    C  MulP   1.9944  1.9944 sum   3.9887
    4    C  MulP   1.9989  1.9989 sum   3.9978
    5    C  MulP   1.9994  1.9994 sum   3.9988
    6    C  MulP   1.9977  1.9977 sum   3.9954
    7    C  MulP   1.9980  1.9980 sum   3.9961
    8    C  MulP   1.9992  1.9992 sum   3.9984
    9    C  MulP   1.9953  1.9953 sum   3.9905
   10    C  MulP   1.9758  1.9758 sum   3.9517
   11    C  MulP   1.9727  1.9727 sum   3.9455
   12    C  MulP   1.9785  1.9785 sum   3.9569
   13    C  MulP   1.9971  1.9971 sum   3.9941
   14    C  MulP   1.9982  1.9982 sum   3.9964
   15    C  MulP   1.9994  1.9994 sum   3.9987
   16    C  MulP   1.9981  1.9981 sum   3.9962
   17    C  MulP   2.0020  2.0020 sum   4.0040
   18    C  MulP   2.0480  2.0480 sum   4.0959
   19    C  MulP   2.0453  2.0453 sum   4.0906
   20    C  MulP   1.9894  1.9894 sum   3.9787
     ..........
     ......

 Sum of MulP: up   =   219.50000 down          =   219.50000
              total=   439.00000 ideal(neutral)=   439.00000
<DFT>  Total Spin Moment (muB) =  0.000000000000
<DFT>  Mixing_weight= 0.030000000000
<DFT>  Uele   = -214.172416100316  dUele     =   0.002223275569
<DFT>  NormRD =    0.066924609865  Criterion =   0.000000010000

******************* MD= 1  SCF=25 *******************
<Poisson>  Poisson's equation using FFT...
<Set_Hamiltonian>  Hamiltonian matrix for VNA+dVH+Vxc...
<Band>  Solving the eigenvalue problem...
 KGrids1:  -0.43750  -0.31250  -0.18750  -0.06250   0.06250   0.18750   0.31250   0.43750 
 KGrids2:  -0.43750  -0.31250  -0.18750  -0.06250   0.06250   0.18750   0.31250   0.43750 
 KGrids3:   0.00000 
<Band_DFT>  Eigen, time=9.306741
<Band_DFT>  DM, time=0.000000
    1    C  MulP   1.9982  1.9982 sum   3.9964
    2    C  MulP   1.9944  1.9944 sum   3.9887
    3    C  MulP   1.9942  1.9942 sum   3.9883
    4    C  MulP   1.9985  1.9985 sum   3.9969
    5    C  MulP   1.9992  1.9992 sum   3.9984
    6    C  MulP   1.9980  1.9980 sum   3.9959
    7    C  MulP   1.9984  1.9984 sum   3.9969
    8    C  MulP   1.9996  1.9996 sum   3.9991
    9    C  MulP   1.9958  1.9958 sum   3.9917
   10    C  MulP   1.9758  1.9758 sum   3.9516
   11    C  MulP   1.9718  1.9718 sum   3.9436
   12    C  MulP   1.9782  1.9782 sum   3.9564
   13    C  MulP   1.9966  1.9966 sum   3.9932
   14    C  MulP   1.9980  1.9980 sum   3.9959
   15    C  MulP   1.9994  1.9994 sum   3.9988
   16    C  MulP   1.9984  1.9984 sum   3.9968
   17    C  MulP   2.0027  2.0027 sum   4.0055
   18    C  MulP   2.0528  2.0528 sum   4.1056
   19    C  MulP   2.0496  2.0496 sum   4.0992
   20    C  MulP   1.9889  1.9889 sum   3.9779
     ..........
     ......

 Sum of MulP: up   =   219.50000 down          =   219.50000
              total=   439.00000 ideal(neutral)=   439.00000
<DFT>  Total Spin Moment (muB) =  0.000000000000
<DFT>  Mixing_weight= 0.030000000000
<DFT>  Uele   = -214.186467236917  dUele     =   0.014051136600
<DFT>  NormRD =    0.037884676940  Criterion =   0.000000010000

******************* MD= 1  SCF=26 *******************
<Poisson>  Poisson's equation using FFT...
<Set_Hamiltonian>  Hamiltonian matrix for VNA+dVH+Vxc...
<Band>  Solving the eigenvalue problem...
 KGrids1:  -0.43750  -0.31250  -0.18750  -0.06250   0.06250   0.18750   0.31250   0.43750 
 KGrids2:  -0.43750  -0.31250  -0.18750  -0.06250   0.06250   0.18750   0.31250   0.43750 
 KGrids3:   0.00000 
<Band_DFT>  Eigen, time=9.310574
<Band_DFT>  DM, time=0.000001
    1    C  MulP   1.9983  1.9983 sum   3.9966
    2    C  MulP   1.9943  1.9943 sum   3.9887
    3    C  MulP   1.9941  1.9941 sum   3.9883
    4    C  MulP   1.9981  1.9981 sum   3.9962
    5    C  MulP   1.9991  1.9991 sum   3.9983
    6    C  MulP   1.9981  1.9981 sum   3.9962
    7    C  MulP   1.9986  1.9986 sum   3.9972
    8    C  MulP   1.9996  1.9996 sum   3.9992
    9    C  MulP   1.9960  1.9960 sum   3.9920
   10    C  MulP   1.9761  1.9761 sum   3.9521
   11    C  MulP   1.9719  1.9719 sum   3.9438
   12    C  MulP   1.9775  1.9775 sum   3.9551
   13    C  MulP   1.9956  1.9956 sum   3.9913
   14    C  MulP   1.9980  1.9980 sum   3.9959
   15    C  MulP   1.9994  1.9994 sum   3.9988
   16    C  MulP   1.9986  1.9986 sum   3.9971
   17    C  MulP   2.0029  2.0029 sum   4.0059
   18    C  MulP   2.0515  2.0515 sum   4.1029
   19    C  MulP   2.0428  2.0428 sum   4.0856
   20    C  MulP   1.9880  1.9880 sum   3.9760
     ..........
     ......

 Sum of MulP: up   =   219.50000 down          =   219.50000
              total=   439.00000 ideal(neutral)=   439.00000
<DFT>  Total Spin Moment (muB) =  0.000000000000
<DFT>  Mixing_weight= 0.030000000000
<DFT>  Uele   = -214.192406272718  dUele     =   0.005939035801
<DFT>  NormRD =    0.018378415000  Criterion =   0.000000010000

******************* MD= 1  SCF=27 *******************
<Poisson>  Poisson's equation using FFT...
<Set_Hamiltonian>  Hamiltonian matrix for VNA+dVH+Vxc...
<Band>  Solving the eigenvalue problem...
 KGrids1:  -0.43750  -0.31250  -0.18750  -0.06250   0.06250   0.18750   0.31250   0.43750 
 KGrids2:  -0.43750  -0.31250  -0.18750  -0.06250   0.06250   0.18750   0.31250   0.43750 
 KGrids3:   0.00000 
<Band_DFT>  Eigen, time=9.292626
<Band_DFT>  DM, time=0.000000
    1    C  MulP   1.9981  1.9981 sum   3.9962
    2    C  MulP   1.9943  1.9943 sum   3.9885
    3    C  MulP   1.9942  1.9942 sum   3.9883
    4    C  MulP   1.9984  1.9984 sum   3.9968
    5    C  MulP   1.9994  1.9994 sum   3.9988
    6    C  MulP   1.9981  1.9981 sum   3.9963
    7    C  MulP   1.9985  1.9985 sum   3.9970
    8    C  MulP   1.9995  1.9995 sum   3.9989
    9    C  MulP   1.9959  1.9959 sum   3.9918
   10    C  MulP   1.9760  1.9760 sum   3.9521
   11    C  MulP   1.9718  1.9718 sum   3.9435
   12    C  MulP   1.9774  1.9774 sum   3.9549
   13    C  MulP   1.9963  1.9963 sum   3.9925
   14    C  MulP   1.9982  1.9982 sum   3.9963
   15    C  MulP   1.9995  1.9995 sum   3.9990
   16    C  MulP   1.9985  1.9985 sum   3.9970
   17    C  MulP   2.0032  2.0032 sum   4.0064
   18    C  MulP   2.0510  2.0510 sum   4.1019
   19    C  MulP   2.0438  2.0438 sum   4.0876
   20    C  MulP   1.9892  1.9892 sum   3.9784
     ..........
     ......

 Sum of MulP: up   =   219.50000 down          =   219.50000
              total=   439.00000 ideal(neutral)=   439.00000
<DFT>  Total Spin Moment (muB) =  0.000000000000
<DFT>  Mixing_weight= 0.030000000000
<DFT>  Uele   = -214.197148591803  dUele     =   0.004742319085
<DFT>  NormRD =    0.008059858726  Criterion =   0.000000010000

******************* MD= 1  SCF=28 *******************
<Poisson>  Poisson's equation using FFT...
<Set_Hamiltonian>  Hamiltonian matrix for VNA+dVH+Vxc...
<Band>  Solving the eigenvalue problem...
 KGrids1:  -0.43750  -0.31250  -0.18750  -0.06250   0.06250   0.18750   0.31250   0.43750 
 KGrids2:  -0.43750  -0.31250  -0.18750  -0.06250   0.06250   0.18750   0.31250   0.43750 
 KGrids3:   0.00000 
<Band_DFT>  Eigen, time=9.314723
<Band_DFT>  DM, time=0.000000
    1    C  MulP   1.9981  1.9981 sum   3.9962
    2    C  MulP   1.9943  1.9943 sum   3.9885
    3    C  MulP   1.9942  1.9942 sum   3.9883
    4    C  MulP   1.9983  1.9983 sum   3.9966
    5    C  MulP   1.9993  1.9993 sum   3.9986
    6    C  MulP   1.9980  1.9980 sum   3.9960
    7    C  MulP   1.9984  1.9984 sum   3.9968
    8    C  MulP   1.9994  1.9994 sum   3.9988
    9    C  MulP   1.9959  1.9959 sum   3.9918
   10    C  MulP   1.9760  1.9760 sum   3.9520
   11    C  MulP   1.9717  1.9717 sum   3.9434
   12    C  MulP   1.9774  1.9774 sum   3.9548
   13    C  MulP   1.9960  1.9960 sum   3.9920
   14    C  MulP   1.9981  1.9981 sum   3.9962
   15    C  MulP   1.9994  1.9994 sum   3.9989
   16    C  MulP   1.9984  1.9984 sum   3.9969
   17    C  MulP   2.0034  2.0034 sum   4.0067
   18    C  MulP   2.0524  2.0524 sum   4.1049
   19    C  MulP   2.0428  2.0428 sum   4.0856
   20    C  MulP   1.9890  1.9890 sum   3.9780
     ..........
     ......

 Sum of MulP: up   =   219.50000 down          =   219.50000
              total=   439.00000 ideal(neutral)=   439.00000
<DFT>  Total Spin Moment (muB) =  0.000000000000
<DFT>  Mixing_weight= 0.030000000000
<DFT>  Uele   = -214.194901575878  dUele     =   0.002247015925
<DFT>  NormRD =    0.008590344981  Criterion =   0.000000010000

******************* MD= 1  SCF=29 *******************
<Poisson>  Poisson's equation using FFT...
<Set_Hamiltonian>  Hamiltonian matrix for VNA+dVH+Vxc...
<Band>  Solving the eigenvalue problem...
 KGrids1:  -0.43750  -0.31250  -0.18750  -0.06250   0.06250   0.18750   0.31250   0.43750 
 KGrids2:  -0.43750  -0.31250  -0.18750  -0.06250   0.06250   0.18750   0.31250   0.43750 
 KGrids3:   0.00000 
<Band_DFT>  Eigen, time=9.310057
<Band_DFT>  DM, time=0.000000
    1    C  MulP   1.9981  1.9981 sum   3.9963
    2    C  MulP   1.9943  1.9943 sum   3.9886
    3    C  MulP   1.9942  1.9942 sum   3.9884
    4    C  MulP   1.9983  1.9983 sum   3.9967
    5    C  MulP   1.9993  1.9993 sum   3.9986
    6    C  MulP   1.9980  1.9980 sum   3.9960
    7    C  MulP   1.9984  1.9984 sum   3.9968
    8    C  MulP   1.9994  1.9994 sum   3.9988
    9    C  MulP   1.9958  1.9958 sum   3.9917
   10    C  MulP   1.9760  1.9760 sum   3.9521
   11    C  MulP   1.9718  1.9718 sum   3.9436
   12    C  MulP   1.9775  1.9775 sum   3.9549
   13    C  MulP   1.9960  1.9960 sum   3.9920
   14    C  MulP   1.9981  1.9981 sum   3.9961
   15    C  MulP   1.9994  1.9994 sum   3.9988
   16    C  MulP   1.9984  1.9984 sum   3.9968
   17    C  MulP   2.0032  2.0032 sum   4.0063
   18    C  MulP   2.0512  2.0512 sum   4.1023
   19    C  MulP   2.0432  2.0432 sum   4.0865
   20    C  MulP   1.9888  1.9888 sum   3.9776
     ..........
     ......

 Sum of MulP: up   =   219.50000 down          =   219.50000
              total=   439.00000 ideal(neutral)=   439.00000
<DFT>  Total Spin Moment (muB) =  0.000000000000
<DFT>  Mixing_weight= 0.030000000000
<DFT>  Uele   = -214.192544002391  dUele     =   0.002357573487
<DFT>  NormRD =    0.005654736355  Criterion =   0.000000010000

******************* MD= 1  SCF=30 *******************
<Poisson>  Poisson's equation using FFT...
<Set_Hamiltonian>  Hamiltonian matrix for VNA+dVH+Vxc...
<Band>  Solving the eigenvalue problem...
 KGrids1:  -0.43750  -0.31250  -0.18750  -0.06250   0.06250   0.18750   0.31250   0.43750 
 KGrids2:  -0.43750  -0.31250  -0.18750  -0.06250   0.06250   0.18750   0.31250   0.43750 
 KGrids3:   0.00000 
<Band_DFT>  Eigen, time=9.301054
<Band_DFT>  DM, time=0.000000
    1    C  MulP   1.9982  1.9982 sum   3.9964
    2    C  MulP   1.9943  1.9943 sum   3.9886
    3    C  MulP   1.9942  1.9942 sum   3.9884
    4    C  MulP   1.9983  1.9983 sum   3.9966
    5    C  MulP   1.9993  1.9993 sum   3.9986
    6    C  MulP   1.9980  1.9980 sum   3.9961
    7    C  MulP   1.9985  1.9985 sum   3.9969
    8    C  MulP   1.9995  1.9995 sum   3.9990
    9    C  MulP   1.9959  1.9959 sum   3.9918
   10    C  MulP   1.9761  1.9761 sum   3.9522
   11    C  MulP   1.9717  1.9717 sum   3.9434
   12    C  MulP   1.9774  1.9774 sum   3.9548
   13    C  MulP   1.9960  1.9960 sum   3.9920
   14    C  MulP   1.9981  1.9981 sum   3.9962
   15    C  MulP   1.9994  1.9994 sum   3.9989
   16    C  MulP   1.9985  1.9985 sum   3.9969
   17    C  MulP   2.0032  2.0032 sum   4.0065
   18    C  MulP   2.0518  2.0518 sum   4.1037
   19    C  MulP   2.0432  2.0432 sum   4.0864
   20    C  MulP   1.9887  1.9887 sum   3.9775
     ..........
     ......

 Sum of MulP: up   =   219.50000 down          =   219.50000
              total=   439.00000 ideal(neutral)=   439.00000
<DFT>  Total Spin Moment (muB) =  0.000000000000
<DFT>  Mixing_weight= 0.030000000000
<DFT>  Uele   = -214.193146440381  dUele     =   0.000602437990
<DFT>  NormRD =    0.003629659588  Criterion =   0.000000010000

******************* MD= 1  SCF=31 *******************
<Poisson>  Poisson's equation using FFT...
<Set_Hamiltonian>  Hamiltonian matrix for VNA+dVH+Vxc...
<Band>  Solving the eigenvalue problem...
 KGrids1:  -0.43750  -0.31250  -0.18750  -0.06250   0.06250   0.18750   0.31250   0.43750 
 KGrids2:  -0.43750  -0.31250  -0.18750  -0.06250   0.06250   0.18750   0.31250   0.43750 
 KGrids3:   0.00000 
<Band_DFT>  Eigen, time=9.292412
<Band_DFT>  DM, time=0.000000
    1    C  MulP   1.9982  1.9982 sum   3.9964
    2    C  MulP   1.9943  1.9943 sum   3.9886
    3    C  MulP   1.9942  1.9942 sum   3.9884
    4    C  MulP   1.9983  1.9983 sum   3.9967
    5    C  MulP   1.9993  1.9993 sum   3.9986
    6    C  MulP   1.9981  1.9981 sum   3.9961
    7    C  MulP   1.9985  1.9985 sum   3.9970
    8    C  MulP   1.9995  1.9995 sum   3.9990
    9    C  MulP   1.9959  1.9959 sum   3.9918
   10    C  MulP   1.9760  1.9760 sum   3.9521
   11    C  MulP   1.9717  1.9717 sum   3.9435
   12    C  MulP   1.9775  1.9775 sum   3.9549
   13    C  MulP   1.9960  1.9960 sum   3.9921
   14    C  MulP   1.9981  1.9981 sum   3.9962
   15    C  MulP   1.9995  1.9995 sum   3.9989
   16    C  MulP   1.9985  1.9985 sum   3.9970
   17    C  MulP   2.0032  2.0032 sum   4.0065
   18    C  MulP   2.0516  2.0516 sum   4.1032
   19    C  MulP   2.0428  2.0428 sum   4.0857
   20    C  MulP   1.9888  1.9888 sum   3.9776
     ..........
     ......

 Sum of MulP: up   =   219.50000 down          =   219.50000
              total=   439.00000 ideal(neutral)=   439.00000
<DFT>  Total Spin Moment (muB) =  0.000000000000
<DFT>  Mixing_weight= 0.030000000000
<DFT>  Uele   = -214.193555156055  dUele     =   0.000408715674
<DFT>  NormRD =    0.001741661170  Criterion =   0.000000010000

******************* MD= 1  SCF=32 *******************
<Poisson>  Poisson's equation using FFT...
<Set_Hamiltonian>  Hamiltonian matrix for VNA+dVH+Vxc...
<Band>  Solving the eigenvalue problem...
 KGrids1:  -0.43750  -0.31250  -0.18750  -0.06250   0.06250   0.18750   0.31250   0.43750 
 KGrids2:  -0.43750  -0.31250  -0.18750  -0.06250   0.06250   0.18750   0.31250   0.43750 
 KGrids3:   0.00000 
<Band_DFT>  Eigen, time=9.286570
<Band_DFT>  DM, time=0.000000
    1    C  MulP   1.9981  1.9981 sum   3.9963
    2    C  MulP   1.9943  1.9943 sum   3.9886
    3    C  MulP   1.9942  1.9942 sum   3.9883
    4    C  MulP   1.9983  1.9983 sum   3.9966
    5    C  MulP   1.9993  1.9993 sum   3.9986
    6    C  MulP   1.9981  1.9981 sum   3.9961
    7    C  MulP   1.9985  1.9985 sum   3.9970
    8    C  MulP   1.9995  1.9995 sum   3.9989
    9    C  MulP   1.9959  1.9959 sum   3.9918
   10    C  MulP   1.9760  1.9760 sum   3.9521
   11    C  MulP   1.9717  1.9717 sum   3.9435
   12    C  MulP   1.9775  1.9775 sum   3.9549
   13    C  MulP   1.9960  1.9960 sum   3.9921
   14    C  MulP   1.9981  1.9981 sum   3.9962
   15    C  MulP   1.9995  1.9995 sum   3.9989
   16    C  MulP   1.9985  1.9985 sum   3.9969
   17    C  MulP   2.0032  2.0032 sum   4.0065
   18    C  MulP   2.0516  2.0516 sum   4.1032
   19    C  MulP   2.0432  2.0432 sum   4.0864
   20    C  MulP   1.9888  1.9888 sum   3.9776
     ..........
     ......

 Sum of MulP: up   =   219.50000 down          =   219.50000
              total=   439.00000 ideal(neutral)=   439.00000
<DFT>  Total Spin Moment (muB) =  0.000000000000
<DFT>  Mixing_weight= 0.030000000000
<DFT>  Uele   = -214.192471728562  dUele     =   0.001083427493
<DFT>  NormRD =    0.001171300612  Criterion =   0.000000010000

******************* MD= 1  SCF=33 *******************
<Poisson>  Poisson's equation using FFT...
<Set_Hamiltonian>  Hamiltonian matrix for VNA+dVH+Vxc...
<Band>  Solving the eigenvalue problem...
 KGrids1:  -0.43750  -0.31250  -0.18750  -0.06250   0.06250   0.18750   0.31250   0.43750 
 KGrids2:  -0.43750  -0.31250  -0.18750  -0.06250   0.06250   0.18750   0.31250   0.43750 
 KGrids3:   0.00000 
<Band_DFT>  Eigen, time=9.306623
<Band_DFT>  DM, time=0.000000
    1    C  MulP   1.9981  1.9981 sum   3.9963
    2    C  MulP   1.9943  1.9943 sum   3.9886
    3    C  MulP   1.9942  1.9942 sum   3.9883
    4    C  MulP   1.9983  1.9983 sum   3.9966
    5    C  MulP   1.9993  1.9993 sum   3.9986
    6    C  MulP   1.9981  1.9981 sum   3.9961
    7    C  MulP   1.9985  1.9985 sum   3.9969
    8    C  MulP   1.9995  1.9995 sum   3.9989
    9    C  MulP   1.9959  1.9959 sum   3.9918
   10    C  MulP   1.9760  1.9760 sum   3.9521
   11    C  MulP   1.9718  1.9718 sum   3.9435
   12    C  MulP   1.9774  1.9774 sum   3.9549
   13    C  MulP   1.9960  1.9960 sum   3.9921
   14    C  MulP   1.9981  1.9981 sum   3.9962
   15    C  MulP   1.9994  1.9994 sum   3.9989
   16    C  MulP   1.9985  1.9985 sum   3.9969
   17    C  MulP   2.0032  2.0032 sum   4.0065
   18    C  MulP   2.0516  2.0516 sum   4.1032
   19    C  MulP   2.0431  2.0431 sum   4.0862
   20    C  MulP   1.9888  1.9888 sum   3.9776
     ..........
     ......

 Sum of MulP: up   =   219.50000 down          =   219.50000
              total=   439.00000 ideal(neutral)=   439.00000
<DFT>  Total Spin Moment (muB) =  0.000000000000
<DFT>  Mixing_weight= 0.030000000000
<DFT>  Uele   = -214.192355600893  dUele     =   0.000116127669
<DFT>  NormRD =    0.000848862551  Criterion =   0.000000010000

******************* MD= 1  SCF=34 *******************
<Poisson>  Poisson's equation using FFT...
<Set_Hamiltonian>  Hamiltonian matrix for VNA+dVH+Vxc...
<Band>  Solving the eigenvalue problem...
 KGrids1:  -0.43750  -0.31250  -0.18750  -0.06250   0.06250   0.18750   0.31250   0.43750 
 KGrids2:  -0.43750  -0.31250  -0.18750  -0.06250   0.06250   0.18750   0.31250   0.43750 
 KGrids3:   0.00000 
<Band_DFT>  Eigen, time=9.290959
<Band_DFT>  DM, time=0.000000
    1    C  MulP   1.9982  1.9982 sum   3.9963
    2    C  MulP   1.9943  1.9943 sum   3.9886
    3    C  MulP   1.9942  1.9942 sum   3.9884
    4    C  MulP   1.9983  1.9983 sum   3.9967
    5    C  MulP   1.9993  1.9993 sum   3.9986
    6    C  MulP   1.9981  1.9981 sum   3.9961
    7    C  MulP   1.9985  1.9985 sum   3.9969
    8    C  MulP   1.9995  1.9995 sum   3.9989
    9    C  MulP   1.9959  1.9959 sum   3.9918
   10    C  MulP   1.9760  1.9760 sum   3.9521
   11    C  MulP   1.9718  1.9718 sum   3.9435
   12    C  MulP   1.9775  1.9775 sum   3.9549
   13    C  MulP   1.9961  1.9961 sum   3.9921
   14    C  MulP   1.9981  1.9981 sum   3.9962
   15    C  MulP   1.9994  1.9994 sum   3.9989
   16    C  MulP   1.9985  1.9985 sum   3.9969
   17    C  MulP   2.0032  2.0032 sum   4.0065
   18    C  MulP   2.0516  2.0516 sum   4.1031
   19    C  MulP   2.0432  2.0432 sum   4.0864
   20    C  MulP   1.9888  1.9888 sum   3.9777
     ..........
     ......

 Sum of MulP: up   =   219.50000 down          =   219.50000
              total=   439.00000 ideal(neutral)=   439.00000
<DFT>  Total Spin Moment (muB) =  0.000000000000
<DFT>  Mixing_weight= 0.030000000000
<DFT>  Uele   = -214.192461594933  dUele     =   0.000105994040
<DFT>  NormRD =    0.000284208206  Criterion =   0.000000010000

******************* MD= 1  SCF=35 *******************
<Poisson>  Poisson's equation using FFT...
<Set_Hamiltonian>  Hamiltonian matrix for VNA+dVH+Vxc...
<Band>  Solving the eigenvalue problem...
 KGrids1:  -0.43750  -0.31250  -0.18750  -0.06250   0.06250   0.18750   0.31250   0.43750 
 KGrids2:  -0.43750  -0.31250  -0.18750  -0.06250   0.06250   0.18750   0.31250   0.43750 
 KGrids3:   0.00000 
<Band_DFT>  Eigen, time=9.303696
<Band_DFT>  DM, time=0.000000
    1    C  MulP   1.9982  1.9982 sum   3.9963
    2    C  MulP   1.9943  1.9943 sum   3.9886
    3    C  MulP   1.9942  1.9942 sum   3.9883
    4    C  MulP   1.9983  1.9983 sum   3.9967
    5    C  MulP   1.9993  1.9993 sum   3.9986
    6    C  MulP   1.9981  1.9981 sum   3.9961
    7    C  MulP   1.9985  1.9985 sum   3.9969
    8    C  MulP   1.9995  1.9995 sum   3.9989
    9    C  MulP   1.9959  1.9959 sum   3.9918
   10    C  MulP   1.9760  1.9760 sum   3.9521
   11    C  MulP   1.9717  1.9717 sum   3.9435
   12    C  MulP   1.9775  1.9775 sum   3.9549
   13    C  MulP   1.9961  1.9961 sum   3.9921
   14    C  MulP   1.9981  1.9981 sum   3.9962
   15    C  MulP   1.9995  1.9995 sum   3.9989
   16    C  MulP   1.9985  1.9985 sum   3.9969
   17    C  MulP   2.0032  2.0032 sum   4.0065
   18    C  MulP   2.0516  2.0516 sum   4.1031
   19    C  MulP   2.0432  2.0432 sum   4.0864
   20    C  MulP   1.9888  1.9888 sum   3.9776
     ..........
     ......

 Sum of MulP: up   =   219.50000 down          =   219.50000
              total=   439.00000 ideal(neutral)=   439.00000
<DFT>  Total Spin Moment (muB) =  0.000000000000
<DFT>  Mixing_weight= 0.030000000000
<DFT>  Uele   = -214.192324487449  dUele     =   0.000137107484
<DFT>  NormRD =    0.000219981985  Criterion =   0.000000010000

******************* MD= 1  SCF=36 *******************
<Poisson>  Poisson's equation using FFT...
<Set_Hamiltonian>  Hamiltonian matrix for VNA+dVH+Vxc...
<Band>  Solving the eigenvalue problem...
 KGrids1:  -0.43750  -0.31250  -0.18750  -0.06250   0.06250   0.18750   0.31250   0.43750 
 KGrids2:  -0.43750  -0.31250  -0.18750  -0.06250   0.06250   0.18750   0.31250   0.43750 
 KGrids3:   0.00000 
<Band_DFT>  Eigen, time=9.304123
<Band_DFT>  DM, time=0.000000
    1    C  MulP   1.9982  1.9982 sum   3.9963
    2    C  MulP   1.9943  1.9943 sum   3.9886
    3    C  MulP   1.9942  1.9942 sum   3.9883
    4    C  MulP   1.9983  1.9983 sum   3.9967
    5    C  MulP   1.9993  1.9993 sum   3.9986
    6    C  MulP   1.9981  1.9981 sum   3.9961
    7    C  MulP   1.9985  1.9985 sum   3.9969
    8    C  MulP   1.9995  1.9995 sum   3.9989
    9    C  MulP   1.9959  1.9959 sum   3.9918
   10    C  MulP   1.9760  1.9760 sum   3.9521
   11    C  MulP   1.9718  1.9718 sum   3.9435
   12    C  MulP   1.9775  1.9775 sum   3.9549
   13    C  MulP   1.9961  1.9961 sum   3.9921
   14    C  MulP   1.9981  1.9981 sum   3.9962
   15    C  MulP   1.9995  1.9995 sum   3.9989
   16    C  MulP   1.9985  1.9985 sum   3.9969
   17    C  MulP   2.0032  2.0032 sum   4.0065
   18    C  MulP   2.0516  2.0516 sum   4.1031
   19    C  MulP   2.0432  2.0432 sum   4.0864
   20    C  MulP   1.9888  1.9888 sum   3.9776
     ..........
     ......

 Sum of MulP: up   =   219.50000 down          =   219.50000
              total=   439.00000 ideal(neutral)=   439.00000
<DFT>  Total Spin Moment (muB) =  0.000000000000
<DFT>  Mixing_weight= 0.030000000000
<DFT>  Uele   = -214.192294586247  dUele     =   0.000029901202
<DFT>  NormRD =    0.000124877880  Criterion =   0.000000010000

******************* MD= 1  SCF=37 *******************
<Poisson>  Poisson's equation using FFT...
<Set_Hamiltonian>  Hamiltonian matrix for VNA+dVH+Vxc...
<Band>  Solving the eigenvalue problem...
 KGrids1:  -0.43750  -0.31250  -0.18750  -0.06250   0.06250   0.18750   0.31250   0.43750 
 KGrids2:  -0.43750  -0.31250  -0.18750  -0.06250   0.06250   0.18750   0.31250   0.43750 
 KGrids3:   0.00000 
<Band_DFT>  Eigen, time=9.279849
<Band_DFT>  DM, time=0.000000
    1    C  MulP   1.9982  1.9982 sum   3.9963
    2    C  MulP   1.9943  1.9943 sum   3.9886
    3    C  MulP   1.9942  1.9942 sum   3.9883
    4    C  MulP   1.9983  1.9983 sum   3.9967
    5    C  MulP   1.9993  1.9993 sum   3.9986
    6    C  MulP   1.9981  1.9981 sum   3.9961
    7    C  MulP   1.9985  1.9985 sum   3.9969
    8    C  MulP   1.9995  1.9995 sum   3.9989
    9    C  MulP   1.9959  1.9959 sum   3.9918
   10    C  MulP   1.9760  1.9760 sum   3.9521
   11    C  MulP   1.9718  1.9718 sum   3.9435
   12    C  MulP   1.9775  1.9775 sum   3.9549
   13    C  MulP   1.9961  1.9961 sum   3.9921
   14    C  MulP   1.9981  1.9981 sum   3.9962
   15    C  MulP   1.9994  1.9994 sum   3.9989
   16    C  MulP   1.9985  1.9985 sum   3.9969
   17    C  MulP   2.0032  2.0032 sum   4.0065
   18    C  MulP   2.0516  2.0516 sum   4.1031
   19    C  MulP   2.0432  2.0432 sum   4.0864
   20    C  MulP   1.9888  1.9888 sum   3.9776
     ..........
     ......

 Sum of MulP: up   =   219.50000 down          =   219.50000
              total=   439.00000 ideal(neutral)=   439.00000
<DFT>  Total Spin Moment (muB) =  0.000000000000
<DFT>  Mixing_weight= 0.030000000000
<DFT>  Uele   = -214.192238906450  dUele     =   0.000055679797
<DFT>  NormRD =    0.000032577240  Criterion =   0.000000010000

******************* MD= 1  SCF=38 *******************
<Poisson>  Poisson's equation using FFT...
<Set_Hamiltonian>  Hamiltonian matrix for VNA+dVH+Vxc...
<Band>  Solving the eigenvalue problem...
 KGrids1:  -0.43750  -0.31250  -0.18750  -0.06250   0.06250   0.18750   0.31250   0.43750 
 KGrids2:  -0.43750  -0.31250  -0.18750  -0.06250   0.06250   0.18750   0.31250   0.43750 
 KGrids3:   0.00000 
<Band_DFT>  Eigen, time=9.313066
<Band_DFT>  DM, time=0.000000
    1    C  MulP   1.9982  1.9982 sum   3.9963
    2    C  MulP   1.9943  1.9943 sum   3.9886
    3    C  MulP   1.9942  1.9942 sum   3.9883
    4    C  MulP   1.9983  1.9983 sum   3.9967
    5    C  MulP   1.9993  1.9993 sum   3.9986
    6    C  MulP   1.9981  1.9981 sum   3.9961
    7    C  MulP   1.9985  1.9985 sum   3.9969
    8    C  MulP   1.9995  1.9995 sum   3.9989
    9    C  MulP   1.9959  1.9959 sum   3.9918
   10    C  MulP   1.9760  1.9760 sum   3.9521
   11    C  MulP   1.9718  1.9718 sum   3.9435
   12    C  MulP   1.9775  1.9775 sum   3.9549
   13    C  MulP   1.9961  1.9961 sum   3.9921
   14    C  MulP   1.9981  1.9981 sum   3.9962
   15    C  MulP   1.9994  1.9994 sum   3.9989
[...]
   20    C  MulP   1.9888  1.9888 sum   3.9776
     ..........
     ......

 Sum of MulP: up   =   219.50000 down          =   219.50000
              total=   439.00000 ideal(neutral)=   439.00000
<DFT>  Total Spin Moment (muB) =  0.000000000000
<DFT>  Mixing_weight= 0.030000000000
<DFT>  Uele   = -214.253550231754  dUele     =   0.000000315632
<DFT>  NormRD =    0.000000562336  Criterion =   0.000000010000

******************* MD=43  SCF=24 *******************
<Poisson>  Poisson's equation using FFT...
<Set_Hamiltonian>  Hamiltonian matrix for VNA+dVH+Vxc...
<Band>  Solving the eigenvalue problem...
 KGrids1:  -0.43750  -0.31250  -0.18750  -0.06250   0.06250   0.18750   0.31250   0.43750 
 KGrids2:  -0.43750  -0.31250  -0.18750  -0.06250   0.06250   0.18750   0.31250   0.43750 
 KGrids3:   0.00000 
<Band_DFT>  Eigen, time=8.756713
<Band_DFT>  DM, time=0.000002
    1    C  MulP   1.9981  1.9981 sum   3.9963
    2    C  MulP   1.9942  1.9942 sum   3.9884
    3    C  MulP   1.9942  1.9942 sum   3.9883
    4    C  MulP   1.9983  1.9983 sum   3.9967
    5    C  MulP   1.9994  1.9994 sum   3.9987
    6    C  MulP   1.9979  1.9979 sum   3.9959
    7    C  MulP   1.9984  1.9984 sum   3.9969
    8    C  MulP   1.9994  1.9994 sum   3.9988
    9    C  MulP   1.9958  1.9958 sum   3.9916
   10    C  MulP   1.9760  1.9760 sum   3.9519
   11    C  MulP   1.9716  1.9716 sum   3.9433
   12    C  MulP   1.9769  1.9769 sum   3.9538
   13    C  MulP   1.9960  1.9960 sum   3.9920
   14    C  MulP   1.9980  1.9980 sum   3.9960
   15    C  MulP   1.9993  1.9993 sum   3.9987
   16    C  MulP   1.9984  1.9984 sum   3.9969
   17    C  MulP   2.0033  2.0033 sum   4.0066
   18    C  MulP   2.0514  2.0514 sum   4.1027
   19    C  MulP   2.0445  2.0445 sum   4.0891
   20    C  MulP   1.9888  1.9888 sum   3.9776
     ..........
     ......

 Sum of MulP: up   =   219.50000 down          =   219.50000
              total=   439.00000 ideal(neutral)=   439.00000
<DFT>  Total Spin Moment (muB) =  0.000000000000
<DFT>  Mixing_weight= 0.030000000000
<DFT>  Uele   = -214.253550113359  dUele     =   0.000000118395
<DFT>  NormRD =    0.000000226737  Criterion =   0.000000010000

******************* MD=43  SCF=25 *******************
<Poisson>  Poisson's equation using FFT...
<Set_Hamiltonian>  Hamiltonian matrix for VNA+dVH+Vxc...
<Band>  Solving the eigenvalue problem...
 KGrids1:  -0.43750  -0.31250  -0.18750  -0.06250   0.06250   0.18750   0.31250   0.43750 
 KGrids2:  -0.43750  -0.31250  -0.18750  -0.06250   0.06250   0.18750   0.31250   0.43750 
 KGrids3:   0.00000 
<Band_DFT>  Eigen, time=8.750778
<Band_DFT>  DM, time=0.000000
    1    C  MulP   1.9981  1.9981 sum   3.9963
    2    C  MulP   1.9942  1.9942 sum   3.9884
    3    C  MulP   1.9942  1.9942 sum   3.9883
    4    C  MulP   1.9983  1.9983 sum   3.9967
    5    C  MulP   1.9994  1.9994 sum   3.9987
    6    C  MulP   1.9979  1.9979 sum   3.9959
    7    C  MulP   1.9984  1.9984 sum   3.9969
    8    C  MulP   1.9994  1.9994 sum   3.9988
    9    C  MulP   1.9958  1.9958 sum   3.9916
   10    C  MulP   1.9760  1.9760 sum   3.9519
   11    C  MulP   1.9716  1.9716 sum   3.9433
   12    C  MulP   1.9769  1.9769 sum   3.9538
   13    C  MulP   1.9960  1.9960 sum   3.9920
   14    C  MulP   1.9980  1.9980 sum   3.9960
   15    C  MulP   1.9993  1.9993 sum   3.9987
   16    C  MulP   1.9984  1.9984 sum   3.9969
   17    C  MulP   2.0033  2.0033 sum   4.0066
   18    C  MulP   2.0514  2.0514 sum   4.1027
   19    C  MulP   2.0445  2.0445 sum   4.0891
   20    C  MulP   1.9888  1.9888 sum   3.9776
     ..........
     ......

 Sum of MulP: up   =   219.50000 down          =   219.50000
              total=   439.00000 ideal(neutral)=   439.00000
<DFT>  Total Spin Moment (muB) =  0.000000000000
<DFT>  Mixing_weight= 0.030000000000
<DFT>  Uele   = -214.253550103497  dUele     =   0.000000009862
<DFT>  NormRD =    0.000000220748  Criterion =   0.000000010000
<MD=43>  Force calculation
  Force calculation #1
  Force calculation #2
  Force calculation #3
  Force calculation #4
  Force calculation #5
<MD=43>  Total Energy
  Force calculation #6
  Force calculation #7

*******************************************************
                  Dipole moment (Debye)                 
*******************************************************

 Absolute D      331.52193538

                      Dx                Dy                Dz
 Total            288.46480403     -163.38552476       -0.14412451
 Core           10127.03233632    18188.08575333    22535.00113053
 Electron       -9838.56753229   -18351.47127809   -22535.14525504
 Back ground       -0.00000000       -0.00000000       -0.00000000

*******************************************************
                Total Energy (Hartree) at MD =43        
*******************************************************

  Uele  =    -214.253550103497

  Ukin  =     468.689995810641
  UH0   =   -5602.673995391940
  UH1   =       1.751040406411
  Una   =    -346.894260025309
  Unl   =     -44.748437527261
  Uxc0  =    -106.905185525940
  Uxc1  =    -106.905185525940
  Ucore =    5076.180434903818
  Uhub  =       0.000000000000
  Ucs   =       0.000000000000
  Uzs   =       0.000000000000
  Uzo   =       0.000000000000
  Uef   =       0.000000000000
  UvdW  =       0.000000000000
  Uch   =       0.000000000000
  Utot  =    -661.505592875520

  UpV   =       0.000000000000
  Enpy  =    -661.505592875520
  Note:

  Uele:   band energy
  Ukin:   kinetic energy
  UH0:    electric part of screened Coulomb energy
  UH1:    difference electron-electron Coulomb energy
  Una:    neutral atom potential energy
  Unl:    non-local potential energy
  Uxc0:   exchange-correlation energy for alpha spin
  Uxc1:   exchange-correlation energy for beta spin
  Ucore:  core-core Coulomb energy
  Uhub:   LDA+U energy
  Ucs:    constraint energy for spin orientation
  Uzs:    Zeeman term for spin magnetic moment
  Uzo:    Zeeman term for orbital magnetic moment
  Uef:    electric energy by electric field
  UvdW:   semi-empirical vdW energy 
  Uch:    penalty term to create a core hole
  UpV:    pressure times volume
  Enpy:   Enthalpy = Utot + UpV
  (see also PRB 72, 045121(2005) for the energy contributions)


*******************************************************
           Computational times (s) at MD =43            
*******************************************************

  DFT in total      =  264.33001

  Set_OLP_Kin       =    0.56852
  Set_Nonlocal      =    2.09954
  Set_ProExpn_VNA   =    3.31769
  Set_Hamiltonian   =   17.84411
  Poisson           =    0.28496
  diagonalization   =  226.02451
  Mixing_DM         =    2.74643
  Force             =    2.71060
  Total_Energy      =    0.88931
  Set_Aden_Grid     =    0.19375
  Set_Orbitals_Grid =    0.28523
  Set_Density_Grid  =    6.47590
  RestartFileDFT    =    0.33387
  Mulliken_Charge   =    0.01356
  FFT(2D)_Density   =    0.29971

The SCF was achieved at MD=  43

*******************************************************
             MD or geometry opt. at MD =43              
*******************************************************


The geometry optimization was achieved.
<RF>  |Maximum force| (Hartree/Bohr) = 0.000092541090
<RF>  Criterion       (Hartree/Bohr) = 0.000100000000

     atom=   1, XYZ(ang) Fxyz(a.u.)=   0.0700    1.3790   10.4327     0.0000   -0.0000   -0.0001
     atom=   2, XYZ(ang) Fxyz(a.u.)=  -1.1482    3.5356   10.4108     0.0000   -0.0000   -0.0000
     atom=   3, XYZ(ang) Fxyz(a.u.)=  -2.3716    5.6561   10.3943     0.0000   -0.0000   -0.0001
     atom=   4, XYZ(ang) Fxyz(a.u.)=  -3.6266    7.7915   10.4162    -0.0000   -0.0000   -0.0000
     atom=   5, XYZ(ang) Fxyz(a.u.)=  -4.8619    9.9367   10.4636    -0.0000   -0.0000   -0.0000
     atom=   6, XYZ(ang) Fxyz(a.u.)=  -6.1037   12.0705   10.4731     0.0000    0.0000   -0.0000
     atom=   7, XYZ(ang) Fxyz(a.u.)=  -7.3317   14.1977   10.4691     0.0000   -0.0000    0.0001
     atom=   8, XYZ(ang) Fxyz(a.u.)=  -8.5617   16.3397   10.4541    -0.0000    0.0000    0.0000
     atom=   9, XYZ(ang) Fxyz(a.u.)=   2.5428    1.3705   10.4647    -0.0000   -0.0000    0.0000
     atom=  10, XYZ(ang) Fxyz(a.u.)=   1.3005    3.5086   10.4575    -0.0000   -0.0000   -0.0000
     atom=  11, XYZ(ang) Fxyz(a.u.)=   0.1802    5.7128   10.4533     0.0000    0.0000   -0.0000
     atom=  12, XYZ(ang) Fxyz(a.u.)=  -1.1667    7.7906   10.4222    -0.0000   -0.0000   -0.0000
     atom=  13, XYZ(ang) Fxyz(a.u.)=  -2.4075    9.9415   10.5111     0.0000   -0.0000    0.0000
     atom=  14, XYZ(ang) Fxyz(a.u.)=  -3.6239   12.0728   10.5192    -0.0000   -0.0000    0.0000
     atom=  15, XYZ(ang) Fxyz(a.u.)=  -4.8652   14.2064   10.4965    -0.0000   -0.0000    0.0000
     atom=  16, XYZ(ang) Fxyz(a.u.)=  -6.0914   16.3460   10.4763     0.0000   -0.0000    0.0000
     atom=  17, XYZ(ang) Fxyz(a.u.)=   5.0059    1.4302   10.4768     0.0000   -0.0000    0.0000
     atom=  18, XYZ(ang) Fxyz(a.u.)=   3.7231    3.5130   10.4807     0.0000   -0.0000    0.0000
     atom=  19, XYZ(ang) Fxyz(a.u.)=   0.0411    9.8616   10.6139     0.0000    0.0001    0.0000
     atom=  20, XYZ(ang) Fxyz(a.u.)=  -1.1437   12.0600   10.6684    -0.0000   -0.0000    0.0001
     atom=  21, XYZ(ang) Fxyz(a.u.)=  -2.3969   14.1999   10.5222     0.0000    0.0000    0.0001
     atom=  22, XYZ(ang) Fxyz(a.u.)=  -3.6352   16.3478   10.4848     0.0000   -0.0000    0.0000
     atom=  23, XYZ(ang) Fxyz(a.u.)=   7.4716    1.3706   10.4626    -0.0000   -0.0000    0.0001
     atom=  24, XYZ(ang) Fxyz(a.u.)=   6.2923    3.5136   10.4687     0.0000   -0.0000    0.0000
     atom=  25, XYZ(ang) Fxyz(a.u.)=   1.3522   12.1328   10.5750    -0.0000   -0.0000   -0.0000
     atom=  26, XYZ(ang) Fxyz(a.u.)=   0.0568   14.2134   10.4974     0.0000    0.0000    0.0000
     atom=  27, XYZ(ang) Fxyz(a.u.)=  -1.1665   16.3404   10.4699     0.0000    0.0000    0.0000
     atom=  28, XYZ(ang) Fxyz(a.u.)=   9.9471    1.3795   10.4233     0.0000   -0.0000    0.0001
     atom=  29, XYZ(ang) Fxyz(a.u.)=   8.7162    3.5101   10.4372     0.0000   -0.0000    0.0000
     atom=  30, XYZ(ang) Fxyz(a.u.)=   2.5386   14.2141   10.3856     0.0000   -0.0000   -0.0000
     atom=  31, XYZ(ang) Fxyz(a.u.)=   1.3087   16.3436   10.4047    -0.0000    0.0000   -0.0000
     atom=  32, XYZ(ang) Fxyz(a.u.)=  12.4154    1.3842   10.3796    -0.0000   -0.0000   -0.0000
     atom=  33, XYZ(ang) Fxyz(a.u.)=  11.1686    3.5361   10.3986     0.0000   -0.0000   -0.0001
     atom=  34, XYZ(ang) Fxyz(a.u.)=   9.8412    5.7166   10.4265     0.0000   -0.0000    0.0000
     atom=  35, XYZ(ang) Fxyz(a.u.)=   5.0113   14.0842   10.4196    -0.0000    0.0000   -0.0000
     atom=  36, XYZ(ang) Fxyz(a.u.)=   3.7858   16.3236   10.3755     0.0000   -0.0000   -0.0000
     atom=  37, XYZ(ang) Fxyz(a.u.)=  14.8791    1.3827   10.3735     0.0000   -0.0000   -0.0000
     atom=  38, XYZ(ang) Fxyz(a.u.)=  13.6449    3.5202   10.3751     0.0000   -0.0000   -0.0001
     atom=  39, XYZ(ang) Fxyz(a.u.)=  12.3939    5.6565   10.3969    -0.0000    0.0000   -0.0001
     atom=  40, XYZ(ang) Fxyz(a.u.)=  11.1903    7.7928   10.4267     0.0000   -0.0000    0.0001
     atom=  41, XYZ(ang) Fxyz(a.u.)=   9.9748    9.8893   10.4488     0.0000   -0.0000    0.0000
     atom=  42, XYZ(ang) Fxyz(a.u.)=   8.6901   12.1143   10.4542     0.0000   -0.0000    0.0000
     atom=  43, XYZ(ang) Fxyz(a.u.)=   7.4803   14.2144   10.4321    -0.0000   -0.0000   -0.0000
     atom=  44, XYZ(ang) Fxyz(a.u.)=   6.2336   16.3229   10.3945     0.0000   -0.0000   -0.0001
     atom=  45, XYZ(ang) Fxyz(a.u.)=  17.3414    1.3853   10.3951     0.0000   -0.0000   -0.0001
     atom=  46, XYZ(ang) Fxyz(a.u.)=  16.1134    3.5196   10.3794     0.0000   -0.0000    0.0000
     atom=  47, XYZ(ang) Fxyz(a.u.)=  14.8810    5.6527   10.3843    -0.0000   -0.0000   -0.0001
     atom=  48, XYZ(ang) Fxyz(a.u.)=  13.6511    7.7925   10.4176    -0.0000   -0.0000   -0.0000
     atom=  49, XYZ(ang) Fxyz(a.u.)=  12.4208    9.9404   10.4457    -0.0000    0.0000    0.0001
     atom=  50, XYZ(ang) Fxyz(a.u.)=  11.1355   12.0450   10.4583     0.0000   -0.0000    0.0000
     atom=  51, XYZ(ang) Fxyz(a.u.)=   9.9540   14.2076   10.4490    -0.0000   -0.0000    0.0001
     atom=  52, XYZ(ang) Fxyz(a.u.)=   8.7102   16.3449   10.4237    -0.0000   -0.0000   -0.0001
     atom=  53, XYZ(ang) Fxyz(a.u.)=   1.3058    0.6656   10.4514    -0.0000   -0.0000   -0.0000
     atom=  54, XYZ(ang) Fxyz(a.u.)=   0.0620    2.8024   10.4334    -0.0000   -0.0000    0.0001
     atom=  55, XYZ(ang) Fxyz(a.u.)=  -1.1193    4.9651   10.4173    -0.0000   -0.0000   -0.0000
     atom=  56, XYZ(ang) Fxyz(a.u.)=  -2.4006    7.0724   10.3977     0.0000   -0.0000   -0.0000
     atom=  57, XYZ(ang) Fxyz(a.u.)=  -3.6225    9.2276   10.4616    -0.0000   -0.0001   -0.0000
     atom=  58, XYZ(ang) Fxyz(a.u.)=  -4.8639   11.3616   10.4828    -0.0000   -0.0000    0.0000
     atom=  59, XYZ(ang) Fxyz(a.u.)=  -6.0977   13.4934   10.4808     0.0000    0.0000   -0.0000
     atom=  60, XYZ(ang) Fxyz(a.u.)=  -7.3256   15.6263   10.4678     0.0000   -0.0000   -0.0001
     atom=  61, XYZ(ang) Fxyz(a.u.)=   3.7832    0.6895   10.4737    -0.0000   -0.0000   -0.0000
     atom=  62, XYZ(ang) Fxyz(a.u.)=   2.5365    2.7962   10.4684     0.0000   -0.0000    0.0000
     atom=  63, XYZ(ang) Fxyz(a.u.)=   1.3255    4.8937   10.4681     0.0000   -0.0000    0.0000
     atom=  64, XYZ(ang) Fxyz(a.u.)=   0.0367    7.1149   10.4556     0.0000   -0.0000   -0.0000
     atom=  65, XYZ(ang) Fxyz(a.u.)=  -1.1595    9.2218   10.4855     0.0000    0.0000   -0.0000
     atom=  66, XYZ(ang) Fxyz(a.u.)=  -2.3766   11.3620   10.5700     0.0000    0.0000   -0.0000
     atom=  67, XYZ(ang) Fxyz(a.u.)=  -3.6303   13.4940   10.5208    -0.0000   -0.0000   -0.0001
     atom=  68, XYZ(ang) Fxyz(a.u.)=  -4.8641   15.6304   10.4878     0.0000   -0.0000   -0.0001
     atom=  69, XYZ(ang) Fxyz(a.u.)=   6.2305    0.6898   10.4758     0.0000   -0.0000   -0.0001
     atom=  70, XYZ(ang) Fxyz(a.u.)=   5.0074    2.9283   10.4767     0.0000   -0.0000    0.0000
     atom=  71, XYZ(ang) Fxyz(a.u.)=   0.1860   11.2978   10.9975     0.0000   -0.0001    0.0000
     atom=  72, XYZ(ang) Fxyz(a.u.)=  -1.1573   13.4763   10.5675     0.0000   -0.0000    0.0000
     atom=  73, XYZ(ang) Fxyz(a.u.)=  -2.4011   15.6295   10.4912    -0.0000    0.0000   -0.0001
     atom=  74, XYZ(ang) Fxyz(a.u.)=   8.7077    0.6634   10.4507    -0.0000   -0.0000   -0.0001
     atom=  75, XYZ(ang) Fxyz(a.u.)=   7.4795    2.7971   10.4559    -0.0000   -0.0000   -0.0001
     atom=  76, XYZ(ang) Fxyz(a.u.)=   1.3033   13.4935   10.4532    -0.0000    0.0000    0.0000
     atom=  77, XYZ(ang) Fxyz(a.u.)=   0.0674   15.6225   10.4560     0.0000    0.0000    0.0000
     atom=  78, XYZ(ang) Fxyz(a.u.)=  11.1794    0.6688   10.4004     0.0000   -0.0000    0.0000
     atom=  79, XYZ(ang) Fxyz(a.u.)=   9.9561    2.8003   10.4180    -0.0000   -0.0000   -0.0000
     atom=  80, XYZ(ang) Fxyz(a.u.)=   8.6943    4.8955   10.4396    -0.0000   -0.0000    0.0000
     atom=  81, XYZ(ang) Fxyz(a.u.)=   3.7251   13.5087   10.4128     0.0000    0.0000   -0.0000
     atom=  82, XYZ(ang) Fxyz(a.u.)=   2.5444   15.6419   10.3747    -0.0000   -0.0000    0.0000
     atom=  83, XYZ(ang) Fxyz(a.u.)=  13.6499    0.6663   10.3730    -0.0000   -0.0000    0.0000
     atom=  84, XYZ(ang) Fxyz(a.u.)=  12.4100    2.8143   10.3818     0.0000   -0.0000    0.0001
     atom=  85, XYZ(ang) Fxyz(a.u.)=  11.1413    4.9661   10.4046    -0.0000    0.0000   -0.0000
     atom=  86, XYZ(ang) Fxyz(a.u.)=   9.9788    7.1206   10.4331     0.0000    0.0000    0.0000
     atom=  87, XYZ(ang) Fxyz(a.u.)=   6.2931   13.5007   10.4352     0.0000   -0.0000    0.0000
     atom=  88, XYZ(ang) Fxyz(a.u.)=   5.0100   15.5838   10.3948     0.0000   -0.0000    0.0000
     atom=  89, XYZ(ang) Fxyz(a.u.)=  16.1068    0.6664   10.3839     0.0000   -0.0000    0.0000
     atom=  90, XYZ(ang) Fxyz(a.u.)=  14.8793    2.8076   10.3729    -0.0000   -0.0000   -0.0000
     atom=  91, XYZ(ang) Fxyz(a.u.)=  13.6397    4.9427   10.3825     0.0000   -0.0000    0.0000
     atom=  92, XYZ(ang) Fxyz(a.u.)=  12.4251    7.0745   10.4115     0.0000   -0.0000   -0.0000
     atom=  93, XYZ(ang) Fxyz(a.u.)=  11.1896    9.2204   10.4386     0.0000    0.0000   -0.0000
     atom=  94, XYZ(ang) Fxyz(a.u.)=   9.8387   11.2947   10.4544     0.0000   -0.0000    0.0001
     atom=  95, XYZ(ang) Fxyz(a.u.)=   8.7159   13.5006   10.4452    -0.0000   -0.0000    0.0000
     atom=  96, XYZ(ang) Fxyz(a.u.)=   7.4735   15.6407   10.4163     0.0000    0.0000    0.0001
     atom=  97, XYZ(ang) Fxyz(a.u.)=  18.5771    0.6714   10.4156    -0.0000   -0.0000    0.0001
     atom=  98, XYZ(ang) Fxyz(a.u.)=  17.3473    2.8141   10.3914     0.0000   -0.0000    0.0000
     atom=  99, XYZ(ang) Fxyz(a.u.)=  16.1200    4.9426   10.3826     0.0000   -0.0000    0.0000
     atom= 100, XYZ(ang) Fxyz(a.u.)=  14.8832    7.0811   10.4031    -0.0000    0.0000    0.0001
     atom= 101, XYZ(ang) Fxyz(a.u.)=  13.6518    9.2240   10.4396    -0.0000    0.0000   -0.0000
     atom= 102, XYZ(ang) Fxyz(a.u.)=  12.3896   11.3556   10.4589    -0.0000   -0.0000   -0.0000
     atom= 103, XYZ(ang) Fxyz(a.u.)=  11.1644   13.4744   10.4592     0.0000   -0.0000   -0.0001
     atom= 104, XYZ(ang) Fxyz(a.u.)=   9.9462   15.6315   10.4429    -0.0000    0.0000   -0.0000
     atom= 105, XYZ(ang) Fxyz(a.u.)=   0.2497   11.2986   12.4850     0.0001    0.0000   -0.0000
     atom= 106, XYZ(ang) Fxyz(a.u.)=   1.0563   10.8005   12.7242    -0.0000   -0.0000   -0.0000
     atom= 107, XYZ(ang) Fxyz(a.u.)=   1.3862   10.5958   16.0354    -0.0001    0.0000   -0.0000
     atom= 108, XYZ(ang) Fxyz(a.u.)=   1.6379   10.4492   14.8880     0.0001   -0.0000   -0.0000
     atom= 109, XYZ(ang) Fxyz(a.u.)=   1.1406   10.7394   17.1894     0.0001   -0.0000   -0.0000

outputting data on grids to files...


***********************************************************
***********************************************************
               Computational Time (second)                 
***********************************************************
***********************************************************

                               Min_ID   Min_Time       Max_ID   Max_Time
   Total Computational Time =    46    12644.824          0    12644.948
   readfile                 =    25        2.616         42        2.621
   truncation               =    23       27.755         17       32.439
   MD_pac                   =     0        1.972         38        2.361
   OutData                  =    63        0.532          0        0.652
   DFT                      =    17    12606.654         23    12611.338

*** In DFT ***

   Set_OLP_Kin              =    23       10.775          7       48.833
   Set_Nonlocal             =     7       66.199         23      104.380
   Set_ProExpn_VNA          =    23      134.830         46      145.291
   Set_Hamiltonian          =     8      848.409          7      848.417
   Poisson                  =    22       13.695          3       13.700
   Diagonalization          =     0    10807.348         18    10807.372
   Mixing_DM                =    32      133.516          5      133.522
   Force                    =     8      114.300         48      114.300
   Total_Energy             =    43       38.107          0       38.250
   Set_Aden_Grid            =    46        2.473         23       12.891
   Set_Orbitals_Grid        =    23        5.296          6       24.782
   Set_Density_Grid         =    28      301.090         62      318.902
   RestartFileDFT           =     6       17.508          4       35.605
   Mulliken_Charge          =    33        0.633         43        0.633
   FFT(2D)_Density          =     7       14.186         26       14.197
   Others                   =    63        9.694         23       34.816

The calculation was normally finished.
