
The number of threads in each node for OpenMP parallelization is 1.


*******************************************************
*******************************************************
 Welcome to OpenMX   Ver. 3.9.9                           
 Copyright (C), 2002-2019, T. Ozaki                    
 OpenMX comes with ABSOLUTELY NO WARRANTY.             
 This is free software, and you are welcome to         
 redistribute it under the constitution of the GNU-GPL.
*******************************************************
*******************************************************

Automatic determination of Kerker_factor:   3.992945286074


<Input_std>  Your input file was normally read.
<Input_std>  The system includes 3 species and 133 atoms.

*******************************************************
                     PAO and VPS                       
*******************************************************

<SetPara_DFT>  PAOs of species H were normally found.
<SetPara_DFT>  PAOs of species C were normally found.
<SetPara_DFT>  PAOs of species O were normally found.
<SetPara_DFT>  VPSs of species H were normally found.
               H_PBE19.vps is j-dependent.
               In case of scf.SpinOrbit.Coupling=off,
               j-dependent pseudo potentials are averaged by j-degeneracy,
               which corresponds to a scalar relativistic treatment.
<SetPara_DFT>  VPSs of species C were normally found.
               C_PBE19.vps is j-dependent.
               In case of scf.SpinOrbit.Coupling=off,
               j-dependent pseudo potentials are averaged by j-degeneracy,
               which corresponds to a scalar relativistic treatment.
<SetPara_DFT>  VPSs of species O were normally found.
               O_PBE19.vps is j-dependent.
               In case of scf.SpinOrbit.Coupling=off,
               j-dependent pseudo potentials are averaged by j-degeneracy,
               which corresponds to a scalar relativistic treatment.

*******************************************************
     Fourier transform of PAO and projectors of VNL    
*******************************************************

<FT_PAO>          Fourier transform of pseudo atomic orbitals
<FT_NLP>          Fourier transform of non-local projectors
<FT_ProExpn_VNA>  Fourier transform of VNA separable projectors
<FT_VNA>          Fourier transform of VNA potentials
<FT_ProductPAO>   Fourier transform of product of PAOs

*******************************************************
  Allocation of atoms to processors at MD_iter=    1     
*******************************************************

 proc =   0  # of atoms=   2  estimated weight=         2.00000
 proc =   1  # of atoms=   2  estimated weight=         2.00000
 proc =   2  # of atoms=   2  estimated weight=         2.00000
 proc =   3  # of atoms=   2  estimated weight=         2.00000
 proc =   4  # of atoms=   2  estimated weight=         2.00000
 proc =   5  # of atoms=   2  estimated weight=         2.00000
 proc =   6  # of atoms=   2  estimated weight=         2.00000
 proc =   7  # of atoms=   2  estimated weight=         2.00000
 proc =   8  # of atoms=   2  estimated weight=         2.00000
 proc =   9  # of atoms=   2  estimated weight=         2.00000
 proc =  10  # of atoms=   2  estimated weight=         2.00000
 proc =  11  # of atoms=   2  estimated weight=         2.00000
 proc =  12  # of atoms=   2  estimated weight=         2.00000
 proc =  13  # of atoms=   2  estimated weight=         2.00000
 proc =  14  # of atoms=   2  estimated weight=         2.00000
 proc =  15  # of atoms=   3  estimated weight=         3.00000
 proc =  16  # of atoms=   2  estimated weight=         2.00000
 proc =  17  # of atoms=   2  estimated weight=         2.00000
 proc =  18  # of atoms=   2  estimated weight=         2.00000
 proc =  19  # of atoms=   2  estimated weight=         2.00000
 proc =  20  # of atoms=   2  estimated weight=         2.00000
 proc =  21  # of atoms=   2  estimated weight=         2.00000
 proc =  22  # of atoms=   2  estimated weight=         2.00000
 proc =  23  # of atoms=   2  estimated weight=         2.00000
 proc =  24  # of atoms=   2  estimated weight=         2.00000
 proc =  25  # of atoms=   2  estimated weight=         2.00000
 proc =  26  # of atoms=   2  estimated weight=         2.00000
 proc =  27  # of atoms=   2  estimated weight=         2.00000
 proc =  28  # of atoms=   2  estimated weight=         2.00000
 proc =  29  # of atoms=   2  estimated weight=         2.00000
 proc =  30  # of atoms=   2  estimated weight=         2.00000
 proc =  31  # of atoms=   3  estimated weight=         3.00000
 proc =  32  # of atoms=   2  estimated weight=         2.00000
 proc =  33  # of atoms=   2  estimated weight=         2.00000
 proc =  34  # of atoms=   2  estimated weight=         2.00000
 proc =  35  # of atoms=   2  estimated weight=         2.00000
 proc =  36  # of atoms=   2  estimated weight=         2.00000
 proc =  37  # of atoms=   2  estimated weight=         2.00000
 proc =  38  # of atoms=   2  estimated weight=         2.00000
 proc =  39  # of atoms=   2  estimated weight=         2.00000
 proc =  40  # of atoms=   2  estimated weight=         2.00000
 proc =  41  # of atoms=   2  estimated weight=         2.00000
 proc =  42  # of atoms=   2  estimated weight=         2.00000
 proc =  43  # of atoms=   2  estimated weight=         2.00000
 proc =  44  # of atoms=   2  estimated weight=         2.00000
 proc =  45  # of atoms=   2  estimated weight=         2.00000
 proc =  46  # of atoms=   2  estimated weight=         2.00000
 proc =  47  # of atoms=   3  estimated weight=         3.00000
 proc =  48  # of atoms=   2  estimated weight=         2.00000
 proc =  49  # of atoms=   2  estimated weight=         2.00000
 proc =  50  # of atoms=   2  estimated weight=         2.00000
 proc =  51  # of atoms=   2  estimated weight=         2.00000
 proc =  52  # of atoms=   2  estimated weight=         2.00000
 proc =  53  # of atoms=   2  estimated weight=         2.00000
 proc =  54  # of atoms=   2  estimated weight=         2.00000
 proc =  55  # of atoms=   3  estimated weight=         3.00000
 proc =  56  # of atoms=   2  estimated weight=         2.00000
 proc =  57  # of atoms=   2  estimated weight=         2.00000
 proc =  58  # of atoms=   2  estimated weight=         2.00000
 proc =  59  # of atoms=   2  estimated weight=         2.00000
 proc =  60  # of atoms=   2  estimated weight=         2.00000
 proc =  61  # of atoms=   2  estimated weight=         2.00000
 proc =  62  # of atoms=   2  estimated weight=         2.00000
 proc =  63  # of atoms=   3  estimated weight=         3.00000




*******************************************************
        Analysis of neighbors and setting of grids        
*******************************************************

TFNAN=    6020   Average FNAN=  45.26316
TSNAN=       0   Average SNAN=   0.00000
<truncation> CpyCell= 1 ct_AN=   1 FNAN SNAN  45   0
<truncation> CpyCell= 1 ct_AN=   2 FNAN SNAN  45   0
<truncation> CpyCell= 1 ct_AN=   3 FNAN SNAN  45   0
<truncation> CpyCell= 1 ct_AN=   4 FNAN SNAN  45   0
<truncation> CpyCell= 1 ct_AN=   5 FNAN SNAN  45   0
<truncation> CpyCell= 1 ct_AN=   6 FNAN SNAN  45   0
<truncation> CpyCell= 1 ct_AN=   7 FNAN SNAN  45   0
<truncation> CpyCell= 1 ct_AN=   8 FNAN SNAN  45   0
<truncation> CpyCell= 1 ct_AN=   9 FNAN SNAN  45   0
<truncation> CpyCell= 1 ct_AN=  10 FNAN SNAN  46   0
<truncation> CpyCell= 1 ct_AN=  11 FNAN SNAN  47   0
<truncation> CpyCell= 1 ct_AN=  12 FNAN SNAN  47   0
<truncation> CpyCell= 1 ct_AN=  13 FNAN SNAN  45   0
<truncation> CpyCell= 1 ct_AN=  14 FNAN SNAN  45   0
<truncation> CpyCell= 1 ct_AN=  15 FNAN SNAN  45   0
<truncation> CpyCell= 1 ct_AN=  16 FNAN SNAN  45   0
<truncation> CpyCell= 1 ct_AN=  17 FNAN SNAN  45   0
<truncation> CpyCell= 1 ct_AN=  18 FNAN SNAN  47   0
<truncation> CpyCell= 1 ct_AN=  19 FNAN SNAN  48   0
<truncation> CpyCell= 1 ct_AN=  20 FNAN SNAN  48   0
     ..........
     ......

TFNAN=    6020   Average FNAN=  45.26316
TSNAN=       0   Average SNAN=   0.00000
<truncation> CpyCell= 2 ct_AN=   1 FNAN SNAN  45   0
<truncation> CpyCell= 2 ct_AN=   2 FNAN SNAN  45   0
<truncation> CpyCell= 2 ct_AN=   3 FNAN SNAN  45   0
<truncation> CpyCell= 2 ct_AN=   4 FNAN SNAN  45   0
<truncation> CpyCell= 2 ct_AN=   5 FNAN SNAN  45   0
<truncation> CpyCell= 2 ct_AN=   6 FNAN SNAN  45   0
<truncation> CpyCell= 2 ct_AN=   7 FNAN SNAN  45   0
<truncation> CpyCell= 2 ct_AN=   8 FNAN SNAN  45   0
<truncation> CpyCell= 2 ct_AN=   9 FNAN SNAN  45   0
<truncation> CpyCell= 2 ct_AN=  10 FNAN SNAN  46   0
<truncation> CpyCell= 2 ct_AN=  11 FNAN SNAN  47   0
<truncation> CpyCell= 2 ct_AN=  12 FNAN SNAN  47   0
<truncation> CpyCell= 2 ct_AN=  13 FNAN SNAN  45   0
<truncation> CpyCell= 2 ct_AN=  14 FNAN SNAN  45   0
<truncation> CpyCell= 2 ct_AN=  15 FNAN SNAN  45   0
<truncation> CpyCell= 2 ct_AN=  16 FNAN SNAN  45   0
<truncation> CpyCell= 2 ct_AN=  17 FNAN SNAN  45   0
<truncation> CpyCell= 2 ct_AN=  18 FNAN SNAN  47   0
<truncation> CpyCell= 2 ct_AN=  19 FNAN SNAN  48   0
<truncation> CpyCell= 2 ct_AN=  20 FNAN SNAN  48   0
     ..........
     ......

TFNAN=    6020   Average FNAN=  45.26316
TSNAN=       0   Average SNAN=   0.00000
<truncation> CpyCell= 2 ct_AN=   1 FNAN SNAN  45   0
<truncation> CpyCell= 2 ct_AN=   2 FNAN SNAN  45   0
<truncation> CpyCell= 2 ct_AN=   3 FNAN SNAN  45   0
<truncation> CpyCell= 2 ct_AN=   4 FNAN SNAN  45   0
<truncation> CpyCell= 2 ct_AN=   5 FNAN SNAN  45   0
<truncation> CpyCell= 2 ct_AN=   6 FNAN SNAN  45   0
<truncation> CpyCell= 2 ct_AN=   7 FNAN SNAN  45   0
<truncation> CpyCell= 2 ct_AN=   8 FNAN SNAN  45   0
<truncation> CpyCell= 2 ct_AN=   9 FNAN SNAN  45   0
<truncation> CpyCell= 2 ct_AN=  10 FNAN SNAN  46   0
<truncation> CpyCell= 2 ct_AN=  11 FNAN SNAN  47   0
<truncation> CpyCell= 2 ct_AN=  12 FNAN SNAN  47   0
<truncation> CpyCell= 2 ct_AN=  13 FNAN SNAN  45   0
<truncation> CpyCell= 2 ct_AN=  14 FNAN SNAN  45   0
<truncation> CpyCell= 2 ct_AN=  15 FNAN SNAN  45   0
<truncation> CpyCell= 2 ct_AN=  16 FNAN SNAN  45   0
<truncation> CpyCell= 2 ct_AN=  17 FNAN SNAN  45   0
<truncation> CpyCell= 2 ct_AN=  18 FNAN SNAN  47   0
<truncation> CpyCell= 2 ct_AN=  19 FNAN SNAN  48   0
<truncation> CpyCell= 2 ct_AN=  20 FNAN SNAN  48   0
     ..........
     ......

<Check_System> The system is slab.
lattice vectors (bohr)
A  = 37.299978480367,  0.000000000000,  0.000000000000
B  = -18.649989240184, 32.302728872609,  0.000000000000
C  =  0.000000000000,  0.000000000000, 39.684245760157
reciprocal lattice vectors (bohr^-1)
RA =  0.168450105420,  0.097254713866, -0.000000000000
RB =  0.000000000000,  0.194509427732,  0.000000000000
RC =  0.000000000000, -0.000000000000,  0.158329462658
Grid_Origin  0.051808343206  0.089739539486  0.354540952398
Cell_Volume =  47815.194201431834 (Bohr^3)
GridVol     =      0.006832303698 (Bohr^3)
Grid_Origin  0.051808343206  0.089739539486  0.354540952398
Cell_Volume =  47815.194201431834 (Bohr^3)
GridVol     =      0.006832303698 (Bohr^3)
<UCell_Box> Info. of cutoff energy and num. of grids
lattice vectors (bohr)
A  = 37.299978480367,  0.000000000000,  0.000000000000
B  = -18.649989240184, 32.302728872609,  0.000000000000
C  =  0.000000000000,  0.000000000000, 39.684245760157
reciprocal lattice vectors (bohr^-1)
RA =  0.168450105420,  0.097254713866, -0.000000000000
RB =  0.000000000000,  0.194509427732,  0.000000000000
RC =  0.000000000000, -0.000000000000,  0.158329462658
Required cutoff energy (Ryd) for 3D-grids = 300.0000
    Used cutoff energy (Ryd) for 3D-grids = 306.4547, 306.4547, 292.3957
Num. of grids of a-, b-, and c-axes = 180, 180, 216
Grid_Origin  0.051808343206  0.089739539486  0.354540952398
Cell_Volume =  47815.194201431834 (Bohr^3)
GridVol     =      0.006832303698 (Bohr^3)
Cell vectors (bohr) of the grid cell (gtv)
  gtv_a =  0.207222102669,  0.000000000000,  0.000000000000
  gtv_b = -0.103611051334,  0.179459604848,  0.000000000000
  gtv_c =  0.000000000000,  0.000000000000,  0.183723360001
  |gtv_a| =  0.207222102669
  |gtv_b| =  0.207222102419
  |gtv_c| =  0.183723360001
Num. of grids overlapping with atom    1 = 132427
Num. of grids overlapping with atom    2 = 132468
Num. of grids overlapping with atom    3 = 132449
Num. of grids overlapping with atom    4 = 132470
Num. of grids overlapping with atom    5 = 132432
Num. of grids overlapping with atom    6 = 132441
Num. of grids overlapping with atom    7 = 132403
Num. of grids overlapping with atom    8 = 132467
Num. of grids overlapping with atom    9 = 132393
Num. of grids overlapping with atom   10 = 132436
Num. of grids overlapping with atom   11 = 132426
Num. of grids overlapping with atom   12 = 132428
Num. of grids overlapping with atom   13 = 132372
Num. of grids overlapping with atom   14 = 132448
Num. of grids overlapping with atom   15 = 132399
Num. of grids overlapping with atom   16 = 132408
Num. of grids overlapping with atom   17 = 132435
Num. of grids overlapping with atom   18 = 132466
Num. of grids overlapping with atom   19 = 132429
Num. of grids overlapping with atom   20 = 132444
     ..........
     ......


*******************************************************
             SCF calculation at MD = 1                
*******************************************************

<MD= 1>  Calculation of the overlap matrix
<MD= 1>  Calculation of the nonlocal matrix
<MD= 1>  Calculation of the VNA projector matrix

******************* MD= 1  SCF= 1 *******************
<Band>  Solving the eigenvalue problem...
 KGrids1:  -0.43750  -0.31250  -0.18750  -0.06250   0.06250   0.18750   0.31250   0.43750 
 KGrids2:  -0.43750  -0.31250  -0.18750  -0.06250   0.06250   0.18750   0.31250   0.43750 
 KGrids3:   0.00000 
<Band_DFT>  Eigen, time=24.379371
<Band_DFT>  DM, time=0.000093
    1    C  MulP   1.9973  1.9973 sum   3.9946
    2    C  MulP   1.9969  1.9969 sum   3.9937
    3    C  MulP   2.0001  2.0001 sum   4.0002
    4    C  MulP   1.9969  1.9969 sum   3.9938
    5    C  MulP   1.9973  1.9973 sum   3.9946
    6    C  MulP   1.9966  1.9966 sum   3.9932
    7    C  MulP   1.9970  1.9970 sum   3.9940
    8    C  MulP   1.9966  1.9966 sum   3.9933
    9    C  MulP   1.9970  1.9970 sum   3.9941
   10    C  MulP   1.9968  1.9968 sum   3.9937
   11    C  MulP   2.0014  2.0014 sum   4.0027
   12    C  MulP   2.0015  2.0015 sum   4.0029
   13    C  MulP   1.9969  1.9969 sum   3.9939
   14    C  MulP   1.9969  1.9969 sum   3.9939
   15    C  MulP   1.9971  1.9971 sum   3.9942
   16    C  MulP   1.9970  1.9970 sum   3.9940
   17    C  MulP   1.9970  1.9970 sum   3.9940
   18    C  MulP   1.9979  1.9979 sum   3.9957
   19    C  MulP   1.9983  1.9983 sum   3.9966
   20    C  MulP   2.0163  2.0163 sum   4.0325
     ..........
     ......

 Sum of MulP: up   =   267.50000 down          =   267.50000
              total=   535.00000 ideal(neutral)=   535.00000
<DFT>  Total Spin Moment (muB) =  0.000000000000
<DFT>  Mixing_weight= 0.050000000000
<DFT>  Uele   = -221.118514792089  dUele     =   1.000000000000
<DFT>  NormRD =    1.000000000000  Criterion =   0.000000010000

******************* MD= 1  SCF= 2 *******************
<Poisson>  Poisson's equation using FFT...
<Set_Hamiltonian>  Hamiltonian matrix for VNA+dVH+Vxc...
<Band>  Solving the eigenvalue problem...
 KGrids1:  -0.43750  -0.31250  -0.18750  -0.06250   0.06250   0.18750   0.31250   0.43750 
 KGrids2:  -0.43750  -0.31250  -0.18750  -0.06250   0.06250   0.18750   0.31250   0.43750 
 KGrids3:   0.00000 
<Band_DFT>  Eigen, time=14.168054
<Band_DFT>  DM, time=0.000001
    1    C  MulP   1.9973  1.9973 sum   3.9946
    2    C  MulP   1.9969  1.9969 sum   3.9937
    3    C  MulP   2.0001  2.0001 sum   4.0002
    4    C  MulP   1.9969  1.9969 sum   3.9938
    5    C  MulP   1.9973  1.9973 sum   3.9946
    6    C  MulP   1.9966  1.9966 sum   3.9932
    7    C  MulP   1.9970  1.9970 sum   3.9940
    8    C  MulP   1.9966  1.9966 sum   3.9933
    9    C  MulP   1.9970  1.9970 sum   3.9941
   10    C  MulP   1.9968  1.9968 sum   3.9937
   11    C  MulP   2.0014  2.0014 sum   4.0027
   12    C  MulP   2.0015  2.0015 sum   4.0029
   13    C  MulP   1.9969  1.9969 sum   3.9939
   14    C  MulP   1.9969  1.9969 sum   3.9939
   15    C  MulP   1.9971  1.9971 sum   3.9942
   16    C  MulP   1.9970  1.9970 sum   3.9940
   17    C  MulP   1.9970  1.9970 sum   3.9940
   18    C  MulP   1.9979  1.9979 sum   3.9957
   19    C  MulP   1.9983  1.9983 sum   3.9966
   20    C  MulP   2.0163  2.0163 sum   4.0325
     ..........
     ......

 Sum of MulP: up   =   267.50000 down          =   267.50000
              total=   535.00000 ideal(neutral)=   535.00000
<DFT>  Total Spin Moment (muB) =  0.000000000000
<DFT>  Mixing_weight= 0.010000000000
<DFT>  Uele   = -221.118514792089  dUele     =   0.000000000000
<DFT>  NormRD =   10.491648820699  Criterion =   0.000000010000

******************* MD= 1  SCF= 3 *******************
<Poisson>  Poisson's equation using FFT...
<Set_Hamiltonian>  Hamiltonian matrix for VNA+dVH+Vxc...
<Band>  Solving the eigenvalue problem...
 KGrids1:  -0.43750  -0.31250  -0.18750  -0.06250   0.06250   0.18750   0.31250   0.43750 
 KGrids2:  -0.43750  -0.31250  -0.18750  -0.06250   0.06250   0.18750   0.31250   0.43750 
 KGrids3:   0.00000 
<Band_DFT>  Eigen, time=14.186206
<Band_DFT>  DM, time=0.000000
    1    C  MulP   1.9974  1.9974 sum   3.9947
    2    C  MulP   1.9969  1.9969 sum   3.9938
    3    C  MulP   2.0001  2.0001 sum   4.0002
    4    C  MulP   1.9970  1.9970 sum   3.9939
    5    C  MulP   1.9973  1.9973 sum   3.9946
    6    C  MulP   1.9967  1.9967 sum   3.9933
    7    C  MulP   1.9971  1.9971 sum   3.9941
    8    C  MulP   1.9967  1.9967 sum   3.9934
    9    C  MulP   1.9971  1.9971 sum   3.9942
   10    C  MulP   1.9969  1.9969 sum   3.9938
   11    C  MulP   2.0013  2.0013 sum   4.0026
   12    C  MulP   2.0014  2.0014 sum   4.0028
   13    C  MulP   1.9970  1.9970 sum   3.9940
   14    C  MulP   1.9970  1.9970 sum   3.9940
   15    C  MulP   1.9972  1.9972 sum   3.9943
   16    C  MulP   1.9971  1.9971 sum   3.9941
   17    C  MulP   1.9970  1.9970 sum   3.9941
   18    C  MulP   1.9979  1.9979 sum   3.9958
   19    C  MulP   1.9983  1.9983 sum   3.9966
   20    C  MulP   2.0158  2.0158 sum   4.0317
     ..........
     ......

 Sum of MulP: up   =   267.50000 down          =   267.50000
              total=   535.00000 ideal(neutral)=   535.00000
<DFT>  Total Spin Moment (muB) =  0.000000000000
<DFT>  Mixing_weight= 0.300000000000
<DFT>  Uele   = -221.486908599251  dUele     =   0.368393807162
<DFT>  NormRD =   10.357474598046  Criterion =   0.000000010000

******************* MD= 1  SCF= 4 *******************
<Poisson>  Poisson's equation using FFT...
<Set_Hamiltonian>  Hamiltonian matrix for VNA+dVH+Vxc...
<Band>  Solving the eigenvalue problem...
 KGrids1:  -0.43750  -0.31250  -0.18750  -0.06250   0.06250   0.18750   0.31250   0.43750 
 KGrids2:  -0.43750  -0.31250  -0.18750  -0.06250   0.06250   0.18750   0.31250   0.43750 
 KGrids3:   0.00000 
<Band_DFT>  Eigen, time=14.243388
<Band_DFT>  DM, time=0.000001
    1    C  MulP   1.9990  1.9990 sum   3.9979
    2    C  MulP   1.9990  1.9990 sum   3.9980
    3    C  MulP   1.9997  1.9997 sum   3.9994
    4    C  MulP   1.9991  1.9991 sum   3.9983
    5    C  MulP   1.9988  1.9988 sum   3.9977
    6    C  MulP   1.9987  1.9987 sum   3.9975
    7    C  MulP   1.9988  1.9988 sum   3.9976
    8    C  MulP   1.9986  1.9986 sum   3.9973
    9    C  MulP   1.9989  1.9989 sum   3.9979
   10    C  MulP   1.9988  1.9988 sum   3.9975
   11    C  MulP   1.9996  1.9996 sum   3.9993
   12    C  MulP   1.9993  1.9993 sum   3.9987
   13    C  MulP   1.9990  1.9990 sum   3.9980
   14    C  MulP   1.9988  1.9988 sum   3.9977
   15    C  MulP   1.9987  1.9987 sum   3.9974
   16    C  MulP   1.9988  1.9988 sum   3.9976
   17    C  MulP   1.9988  1.9988 sum   3.9976
   18    C  MulP   1.9984  1.9984 sum   3.9969
   19    C  MulP   1.9989  1.9989 sum   3.9978
   20    C  MulP   2.0002  2.0002 sum   4.0003
     ..........
     ......

 Sum of MulP: up   =   267.50000 down          =   267.50000
              total=   535.00000 ideal(neutral)=   535.00000
<DFT>  Total Spin Moment (muB) =  0.000000000000
<DFT>  Mixing_weight= 0.300000000000
<DFT>  Uele   = -232.467035584856  dUele     =  10.980126985606
<DFT>  NormRD =    6.583057500526  Criterion =   0.000000010000

******************* MD= 1  SCF= 5 *******************
<Poisson>  Poisson's equation using FFT...
<Set_Hamiltonian>  Hamiltonian matrix for VNA+dVH+Vxc...
<Band>  Solving the eigenvalue problem...
 KGrids1:  -0.43750  -0.31250  -0.18750  -0.06250   0.06250   0.18750   0.31250   0.43750 
 KGrids2:  -0.43750  -0.31250  -0.18750  -0.06250   0.06250   0.18750   0.31250   0.43750 
 KGrids3:   0.00000 
<Band_DFT>  Eigen, time=14.142631
<Band_DFT>  DM, time=0.000000
    1    C  MulP   1.9994  1.9994 sum   3.9989
    2    C  MulP   1.9993  1.9993 sum   3.9986
    3    C  MulP   2.0000  2.0000 sum   3.9999
    4    C  MulP   1.9993  1.9993 sum   3.9986
    5    C  MulP   1.9995  1.9995 sum   3.9989
    6    C  MulP   1.9993  1.9993 sum   3.9986
    7    C  MulP   1.9994  1.9994 sum   3.9987
    8    C  MulP   1.9993  1.9993 sum   3.9986
    9    C  MulP   1.9994  1.9994 sum   3.9989
   10    C  MulP   1.9993  1.9993 sum   3.9987
   11    C  MulP   1.9998  1.9998 sum   3.9995
   12    C  MulP   1.9998  1.9998 sum   3.9995
   13    C  MulP   1.9994  1.9994 sum   3.9988
   14    C  MulP   1.9993  1.9993 sum   3.9987
   15    C  MulP   1.9994  1.9994 sum   3.9989
   16    C  MulP   1.9994  1.9994 sum   3.9987
   17    C  MulP   1.9994  1.9994 sum   3.9987
   18    C  MulP   1.9989  1.9989 sum   3.9978
   19    C  MulP   1.9993  1.9993 sum   3.9986
   20    C  MulP   2.0010  2.0010 sum   4.0019
     ..........
     ......

 Sum of MulP: up   =   267.50000 down          =   267.50000
              total=   535.00000 ideal(neutral)=   535.00000
<DFT>  Total Spin Moment (muB) =  0.000000000000
<DFT>  Mixing_weight= 0.300000000000
<DFT>  Uele   = -239.991424156362  dUele     =   7.524388571506
<DFT>  NormRD =    4.445628659371  Criterion =   0.000000010000

******************* MD= 1  SCF= 6 *******************
<Poisson>  Poisson's equation using FFT...
<Set_Hamiltonian>  Hamiltonian matrix for VNA+dVH+Vxc...
<Band>  Solving the eigenvalue problem...
 KGrids1:  -0.43750  -0.31250  -0.18750  -0.06250   0.06250   0.18750   0.31250   0.43750 
 KGrids2:  -0.43750  -0.31250  -0.18750  -0.06250   0.06250   0.18750   0.31250   0.43750 
 KGrids3:   0.00000 
<Band_DFT>  Eigen, time=14.176635
<Band_DFT>  DM, time=0.000000
    1    C  MulP   1.9996  1.9996 sum   3.9991
    2    C  MulP   1.9994  1.9994 sum   3.9988
    3    C  MulP   2.0001  2.0001 sum   4.0001
    4    C  MulP   1.9994  1.9994 sum   3.9988
    5    C  MulP   1.9996  1.9996 sum   3.9992
    6    C  MulP   1.9994  1.9994 sum   3.9988
    7    C  MulP   1.9995  1.9995 sum   3.9990
    8    C  MulP   1.9994  1.9994 sum   3.9988
    9    C  MulP   1.9996  1.9996 sum   3.9992
   10    C  MulP   1.9995  1.9995 sum   3.9990
   11    C  MulP   2.0000  2.0000 sum   4.0000
   12    C  MulP   2.0000  2.0000 sum   3.9999
   13    C  MulP   1.9995  1.9995 sum   3.9991
   14    C  MulP   1.9995  1.9995 sum   3.9989
   15    C  MulP   1.9996  1.9996 sum   3.9991
   16    C  MulP   1.9995  1.9995 sum   3.9990
   17    C  MulP   1.9995  1.9995 sum   3.9990
   18    C  MulP   1.9991  1.9991 sum   3.9983
   19    C  MulP   1.9997  1.9997 sum   3.9993
   20    C  MulP   2.0015  2.0015 sum   4.0031
     ..........
     ......

 Sum of MulP: up   =   267.50000 down          =   267.50000
              total=   535.00000 ideal(neutral)=   535.00000
<DFT>  Total Spin Moment (muB) =  0.000000000000
<DFT>  Mixing_weight= 0.300000000000
<DFT>  Uele   = -244.965616421566  dUele     =   4.974192265203
<DFT>  NormRD =    3.029313050680  Criterion =   0.000000010000

******************* MD= 1  SCF= 7 *******************
<Poisson>  Poisson's equation using FFT...
<Set_Hamiltonian>  Hamiltonian matrix for VNA+dVH+Vxc...
<Band>  Solving the eigenvalue problem...
 KGrids1:  -0.43750  -0.31250  -0.18750  -0.06250   0.06250   0.18750   0.31250   0.43750 
 KGrids2:  -0.43750  -0.31250  -0.18750  -0.06250   0.06250   0.18750   0.31250   0.43750 
 KGrids3:   0.00000 
<Band_DFT>  Eigen, time=14.191416
<Band_DFT>  DM, time=0.000000
    1    C  MulP   1.9996  1.9996 sum   3.9993
    2    C  MulP   1.9994  1.9994 sum   3.9988
    3    C  MulP   2.0001  2.0001 sum   4.0002
    4    C  MulP   1.9994  1.9994 sum   3.9988
    5    C  MulP   1.9996  1.9996 sum   3.9992
    6    C  MulP   1.9995  1.9995 sum   3.9989
    7    C  MulP   1.9996  1.9996 sum   3.9991
    8    C  MulP   1.9994  1.9994 sum   3.9989
    9    C  MulP   1.9997  1.9997 sum   3.9993
   10    C  MulP   1.9995  1.9995 sum   3.9991
   11    C  MulP   2.0001  2.0001 sum   4.0003
   12    C  MulP   2.0000  2.0000 sum   4.0001
   13    C  MulP   1.9996  1.9996 sum   3.9992
   14    C  MulP   1.9995  1.9995 sum   3.9991
   15    C  MulP   1.9996  1.9996 sum   3.9992
   16    C  MulP   1.9996  1.9996 sum   3.9991
   17    C  MulP   1.9996  1.9996 sum   3.9991
   18    C  MulP   1.9992  1.9992 sum   3.9985
   19    C  MulP   1.9998  1.9998 sum   3.9997
   20    C  MulP   2.0016  2.0016 sum   4.0031
     ..........
     ......

 Sum of MulP: up   =   267.50000 down          =   267.50000
              total=   535.00000 ideal(neutral)=   535.00000
<DFT>  Total Spin Moment (muB) =  0.000000000000
<DFT>  Mixing_weight= 0.300000000000
<DFT>  Uele   = -248.280826291984  dUele     =   3.315209870418
<DFT>  NormRD =    2.074201991276  Criterion =   0.000000010000

******************* MD= 1  SCF= 8 *******************
<Poisson>  Poisson's equation using FFT...
<Set_Hamiltonian>  Hamiltonian matrix for VNA+dVH+Vxc...
<Band>  Solving the eigenvalue problem...
 KGrids1:  -0.43750  -0.31250  -0.18750  -0.06250   0.06250   0.18750   0.31250   0.43750 
 KGrids2:  -0.43750  -0.31250  -0.18750  -0.06250   0.06250   0.18750   0.31250   0.43750 
 KGrids3:   0.00000 
<Band_DFT>  Eigen, time=14.185486
<Band_DFT>  DM, time=0.000000
    1    C  MulP   1.9997  1.9997 sum   3.9993
    2    C  MulP   1.9995  1.9995 sum   3.9989
    3    C  MulP   2.0001  2.0001 sum   4.0002
    4    C  MulP   1.9994  1.9994 sum   3.9989
    5    C  MulP   1.9996  1.9996 sum   3.9993
    6    C  MulP   1.9995  1.9995 sum   3.9990
    7    C  MulP   1.9996  1.9996 sum   3.9992
    8    C  MulP   1.9995  1.9995 sum   3.9989
    9    C  MulP   1.9997  1.9997 sum   3.9994
   10    C  MulP   1.9996  1.9996 sum   3.9991
   11    C  MulP   2.0002  2.0002 sum   4.0004
   12    C  MulP   2.0001  2.0001 sum   4.0001
   13    C  MulP   1.9996  1.9996 sum   3.9992
   14    C  MulP   1.9996  1.9996 sum   3.9991
   15    C  MulP   1.9996  1.9996 sum   3.9993
   16    C  MulP   1.9996  1.9996 sum   3.9992
   17    C  MulP   1.9996  1.9996 sum   3.9992
   18    C  MulP   1.9993  1.9993 sum   3.9986
   19    C  MulP   1.9999  1.9999 sum   3.9998
   20    C  MulP   2.0016  2.0016 sum   4.0031
     ..........
     ......

 Sum of MulP: up   =   267.50000 down          =   267.50000
              total=   535.00000 ideal(neutral)=   535.00000
<DFT>  Total Spin Moment (muB) =  0.000000000000
<DFT>  Mixing_weight= 0.300000000000
<DFT>  Uele   = -250.543153429326  dUele     =   2.262327137342
<DFT>  NormRD =    1.426426478982  Criterion =   0.000000010000

******************* MD= 1  SCF= 9 *******************
<Poisson>  Poisson's equation using FFT...
<Set_Hamiltonian>  Hamiltonian matrix for VNA+dVH+Vxc...
<Band>  Solving the eigenvalue problem...
 KGrids1:  -0.43750  -0.31250  -0.18750  -0.06250   0.06250   0.18750   0.31250   0.43750 
 KGrids2:  -0.43750  -0.31250  -0.18750  -0.06250   0.06250   0.18750   0.31250   0.43750 
 KGrids3:   0.00000 
<Band_DFT>  Eigen, time=14.433891
<Band_DFT>  DM, time=0.000001
    1    C  MulP   1.9997  1.9997 sum   3.9993
    2    C  MulP   1.9995  1.9995 sum   3.9989
    3    C  MulP   2.0001  2.0001 sum   4.0003
    4    C  MulP   1.9995  1.9995 sum   3.9989
    5    C  MulP   1.9996  1.9996 sum   3.9993
    6    C  MulP   1.9995  1.9995 sum   3.9990
    7    C  MulP   1.9996  1.9996 sum   3.9992
    8    C  MulP   1.9995  1.9995 sum   3.9989
    9    C  MulP   1.9997  1.9997 sum   3.9994
   10    C  MulP   1.9996  1.9996 sum   3.9992
   11    C  MulP   2.0002  2.0002 sum   4.0004
   12    C  MulP   2.0001  2.0001 sum   4.0002
   13    C  MulP   1.9996  1.9996 sum   3.9993
   14    C  MulP   1.9996  1.9996 sum   3.9991
   15    C  MulP   1.9997  1.9997 sum   3.9993
   16    C  MulP   1.9996  1.9996 sum   3.9992
   17    C  MulP   1.9996  1.9996 sum   3.9992
   18    C  MulP   1.9993  1.9993 sum   3.9987
   19    C  MulP   1.9999  1.9999 sum   3.9999
   20    C  MulP   2.0015  2.0015 sum   4.0031
     ..........
     ......

 Sum of MulP: up   =   267.50000 down          =   267.50000
              total=   535.00000 ideal(neutral)=   535.00000
<DFT>  Total Spin Moment (muB) =  0.000000000000
<DFT>  Mixing_weight= 0.300000000000
<DFT>  Uele   = -252.130952898329  dUele     =   1.587799469003
<DFT>  NormRD =    0.984721309723  Criterion =   0.000000010000

******************* MD= 1  SCF=10 *******************
<Poisson>  Poisson's equation using FFT...
<Set_Hamiltonian>  Hamiltonian matrix for VNA+dVH+Vxc...
<Band>  Solving the eigenvalue problem...
 KGrids1:  -0.43750  -0.31250  -0.18750  -0.06250   0.06250   0.18750   0.31250   0.43750 
 KGrids2:  -0.43750  -0.31250  -0.18750  -0.06250   0.06250   0.18750   0.31250   0.43750 
 KGrids3:   0.00000 
<Band_DFT>  Eigen, time=14.159622
<Band_DFT>  DM, time=0.000001
    1    C  MulP   1.9997  1.9997 sum   3.9994
    2    C  MulP   1.9995  1.9995 sum   3.9989
    3    C  MulP   2.0001  2.0001 sum   4.0003
    4    C  MulP   1.9995  1.9995 sum   3.9989
    5    C  MulP   1.9997  1.9997 sum   3.9993
    6    C  MulP   1.9995  1.9995 sum   3.9990
    7    C  MulP   1.9996  1.9996 sum   3.9992
    8    C  MulP   1.9995  1.9995 sum   3.9990
    9    C  MulP   1.9997  1.9997 sum   3.9994
   10    C  MulP   1.9996  1.9996 sum   3.9992
   11    C  MulP   2.0002  2.0002 sum   4.0004
   12    C  MulP   2.0001  2.0001 sum   4.0002
   13    C  MulP   1.9997  1.9997 sum   3.9993
   14    C  MulP   1.9996  1.9996 sum   3.9992
   15    C  MulP   1.9997  1.9997 sum   3.9993
   16    C  MulP   1.9996  1.9996 sum   3.9992
   17    C  MulP   1.9996  1.9996 sum   3.9992
   18    C  MulP   1.9994  1.9994 sum   3.9987
   19    C  MulP   1.9999  1.9999 sum   3.9999
   20    C  MulP   2.0015  2.0015 sum   4.0031
     ..........
     ......

 Sum of MulP: up   =   267.50000 down          =   267.50000
              total=   535.00000 ideal(neutral)=   535.00000
<DFT>  Total Spin Moment (muB) =  0.000000000000
<DFT>  Mixing_weight= 0.300000000000
<DFT>  Uele   = -253.279157566211  dUele     =   1.148204667882
<DFT>  NormRD =    0.682115246818  Criterion =   0.000000010000

******************* MD= 1  SCF=11 *******************
<Poisson>  Poisson's equation using FFT...
<Set_Hamiltonian>  Hamiltonian matrix for VNA+dVH+Vxc...
<Band>  Solving the eigenvalue problem...
 KGrids1:  -0.43750  -0.31250  -0.18750  -0.06250   0.06250   0.18750   0.31250   0.43750 
 KGrids2:  -0.43750  -0.31250  -0.18750  -0.06250   0.06250   0.18750   0.31250   0.43750 
 KGrids3:   0.00000 
<Band_DFT>  Eigen, time=14.155099
<Band_DFT>  DM, time=0.000000
    1    C  MulP   1.9997  1.9997 sum   3.9994
    2    C  MulP   1.9995  1.9995 sum   3.9990
    3    C  MulP   2.0001  2.0001 sum   4.0003
    4    C  MulP   1.9995  1.9995 sum   3.9989
    5    C  MulP   1.9997  1.9997 sum   3.9993
    6    C  MulP   1.9995  1.9995 sum   3.9990
    7    C  MulP   1.9996  1.9996 sum   3.9992
    8    C  MulP   1.9995  1.9995 sum   3.9990
    9    C  MulP   1.9997  1.9997 sum   3.9994
   10    C  MulP   1.9996  1.9996 sum   3.9992
   11    C  MulP   2.0002  2.0002 sum   4.0005
   12    C  MulP   2.0001  2.0001 sum   4.0002
   13    C  MulP   1.9997  1.9997 sum   3.9993
   14    C  MulP   1.9996  1.9996 sum   3.9992
   15    C  MulP   1.9997  1.9997 sum   3.9993
   16    C  MulP   1.9996  1.9996 sum   3.9992
   17    C  MulP   1.9996  1.9996 sum   3.9992
   18    C  MulP   1.9994  1.9994 sum   3.9988
   19    C  MulP   1.9999  1.9999 sum   3.9999
   20    C  MulP   2.0015  2.0015 sum   4.0031
     ..........
     ......

 Sum of MulP: up   =   267.50000 down          =   267.50000
              total=   535.00000 ideal(neutral)=   535.00000
<DFT>  Total Spin Moment (muB) =  0.000000000000
<DFT>  Mixing_weight= 0.300000000000
<DFT>  Uele   = -254.134838165676  dUele     =   0.855680599465
<DFT>  NormRD =    0.473965883337  Criterion =   0.000000010000

******************* MD= 1  SCF=12 *******************
<Poisson>  Poisson's equation using FFT...
<Set_Hamiltonian>  Hamiltonian matrix for VNA+dVH+Vxc...
<Band>  Solving the eigenvalue problem...
 KGrids1:  -0.43750  -0.31250  -0.18750  -0.06250   0.06250   0.18750   0.31250   0.43750 
 KGrids2:  -0.43750  -0.31250  -0.18750  -0.06250   0.06250   0.18750   0.31250   0.43750 
 KGrids3:   0.00000 
<Band_DFT>  Eigen, time=14.129046
<Band_DFT>  DM, time=0.000001
    1    C  MulP   1.9997  1.9997 sum   3.9994
    2    C  MulP   1.9995  1.9995 sum   3.9990
    3    C  MulP   2.0001  2.0001 sum   4.0003
    4    C  MulP   1.9995  1.9995 sum   3.9990
    5    C  MulP   1.9997  1.9997 sum   3.9993
    6    C  MulP   1.9995  1.9995 sum   3.9990
    7    C  MulP   1.9996  1.9996 sum   3.9992
    8    C  MulP   1.9995  1.9995 sum   3.9990
    9    C  MulP   1.9997  1.9997 sum   3.9994
   10    C  MulP   1.9996  1.9996 sum   3.9992
   11    C  MulP   2.0002  2.0002 sum   4.0004
   12    C  MulP   2.0001  2.0001 sum   4.0002
   13    C  MulP   1.9997  1.9997 sum   3.9993
   14    C  MulP   1.9996  1.9996 sum   3.9992
   15    C  MulP   1.9997  1.9997 sum   3.9993
   16    C  MulP   1.9996  1.9996 sum   3.9992
   17    C  MulP   1.9996  1.9996 sum   3.9992
   18    C  MulP   1.9994  1.9994 sum   3.9988
   19    C  MulP   2.0000  2.0000 sum   3.9999
   20    C  MulP   2.0015  2.0015 sum   4.0030
     ..........
     ......

 Sum of MulP: up   =   267.50000 down          =   267.50000
              total=   535.00000 ideal(neutral)=   535.00000
<DFT>  Total Spin Moment (muB) =  0.000000000000
<DFT>  Mixing_weight= 0.300000000000
<DFT>  Uele   = -254.791099025465  dUele     =   0.656260859789
<DFT>  NormRD =    0.330342648352  Criterion =   0.000000010000

******************* MD= 1  SCF=13 *******************
<Poisson>  Poisson's equation using FFT...
<Set_Hamiltonian>  Hamiltonian matrix for VNA+dVH+Vxc...
<Band>  Solving the eigenvalue problem...
 KGrids1:  -0.43750  -0.31250  -0.18750  -0.06250   0.06250   0.18750   0.31250   0.43750 
 KGrids2:  -0.43750  -0.31250  -0.18750  -0.06250   0.06250   0.18750   0.31250   0.43750 
 KGrids3:   0.00000 
<Band_DFT>  Eigen, time=14.137287
<Band_DFT>  DM, time=0.000000
    1    C  MulP   1.9997  1.9997 sum   3.9994
    2    C  MulP   1.9995  1.9995 sum   3.9990
    3    C  MulP   2.0001  2.0001 sum   4.0003
    4    C  MulP   1.9995  1.9995 sum   3.9989
    5    C  MulP   1.9997  1.9997 sum   3.9993
    6    C  MulP   1.9995  1.9995 sum   3.9990
    7    C  MulP   1.9996  1.9996 sum   3.9992
    8    C  MulP   1.9995  1.9995 sum   3.9990
    9    C  MulP   1.9997  1.9997 sum   3.9995
   10    C  MulP   1.9996  1.9996 sum   3.9992
   11    C  MulP   2.0002  2.0002 sum   4.0005
   12    C  MulP   2.0001  2.0001 sum   4.0002
   13    C  MulP   1.9997  1.9997 sum   3.9993
   14    C  MulP   1.9996  1.9996 sum   3.9992
   15    C  MulP   1.9997  1.9997 sum   3.9993
   16    C  MulP   1.9996  1.9996 sum   3.9992
   17    C  MulP   1.9996  1.9996 sum   3.9993
   18    C  MulP   1.9994  1.9994 sum   3.9988
   19    C  MulP   2.0000  2.0000 sum   3.9999
   20    C  MulP   2.0015  2.0015 sum   4.0030
     ..........
     ......

 Sum of MulP: up   =   267.50000 down          =   267.50000
              total=   535.00000 ideal(neutral)=   535.00000
<DFT>  Total Spin Moment (muB) =  0.000000000000
<DFT>  Mixing_weight= 0.300000000000
<DFT>  Uele   = -255.307850695405  dUele     =   0.516751669940
<DFT>  NormRD =    0.231000236795  Criterion =   0.000000010000

******************* MD= 1  SCF=14 *******************
<Poisson>  Poisson's equation using FFT...
<Set_Hamiltonian>  Hamiltonian matrix for VNA+dVH+Vxc...
<Band>  Solving the eigenvalue problem...
 KGrids1:  -0.43750  -0.31250  -0.18750  -0.06250   0.06250   0.18750   0.31250   0.43750 
 KGrids2:  -0.43750  -0.31250  -0.18750  -0.06250   0.06250   0.18750   0.31250   0.43750 
 KGrids3:   0.00000 
<Band_DFT>  Eigen, time=14.152393
<Band_DFT>  DM, time=0.000000
    1    C  MulP   1.9997  1.9997 sum   3.9994
    2    C  MulP   1.9995  1.9995 sum   3.9990
    3    C  MulP   2.0001  2.0001 sum   4.0003
    4    C  MulP   1.9995  1.9995 sum   3.9989
    5    C  MulP   1.9997  1.9997 sum   3.9993
    6    C  MulP   1.9995  1.9995 sum   3.9990
    7    C  MulP   1.9996  1.9996 sum   3.9992
    8    C  MulP   1.9995  1.9995 sum   3.9990
    9    C  MulP   1.9997  1.9997 sum   3.9995
   10    C  MulP   1.9996  1.9996 sum   3.9992
   11    C  MulP   2.0002  2.0002 sum   4.0005
   12    C  MulP   2.0001  2.0001 sum   4.0002
   13    C  MulP   1.9997  1.9997 sum   3.9993
   14    C  MulP   1.9996  1.9996 sum   3.9992
   15    C  MulP   1.9997  1.9997 sum   3.9993
   16    C  MulP   1.9996  1.9996 sum   3.9992
   17    C  MulP   1.9996  1.9996 sum   3.9993
   18    C  MulP   1.9994  1.9994 sum   3.9988
   19    C  MulP   2.0000  2.0000 sum   3.9999
   20    C  MulP   2.0015  2.0015 sum   4.0030
     ..........
     ......

 Sum of MulP: up   =   267.50000 down          =   267.50000
              total=   535.00000 ideal(neutral)=   535.00000
<DFT>  Total Spin Moment (muB) =  0.000000000000
<DFT>  Mixing_weight= 0.300000000000
<DFT>  Uele   = -255.724264196860  dUele     =   0.416413501455
<DFT>  NormRD =    0.162157212978  Criterion =   0.000000010000

******************* MD= 1  SCF=15 *******************
<Poisson>  Poisson's equation using FFT...
<Set_Hamiltonian>  Hamiltonian matrix for VNA+dVH+Vxc...
<Band>  Solving the eigenvalue problem...
 KGrids1:  -0.43750  -0.31250  -0.18750  -0.06250   0.06250   0.18750   0.31250   0.43750 
 KGrids2:  -0.43750  -0.31250  -0.18750  -0.06250   0.06250   0.18750   0.31250   0.43750 
 KGrids3:   0.00000 
<Band_DFT>  Eigen, time=14.156851
<Band_DFT>  DM, time=0.000000
    1    C  MulP   1.9997  1.9997 sum   3.9994
    2    C  MulP   1.9995  1.9995 sum   3.9990
    3    C  MulP   2.0001  2.0001 sum   4.0003
    4    C  MulP   1.9995  1.9995 sum   3.9990
    5    C  MulP   1.9997  1.9997 sum   3.9993
    6    C  MulP   1.9995  1.9995 sum   3.9990
    7    C  MulP   1.9996  1.9996 sum   3.9992
    8    C  MulP   1.9995  1.9995 sum   3.9990
    9    C  MulP   1.9997  1.9997 sum   3.9995
   10    C  MulP   1.9996  1.9996 sum   3.9992
   11    C  MulP   2.0002  2.0002 sum   4.0005
   12    C  MulP   2.0001  2.0001 sum   4.0002
   13    C  MulP   1.9997  1.9997 sum   3.9993
   14    C  MulP   1.9996  1.9996 sum   3.9992
   15    C  MulP   1.9997  1.9997 sum   3.9993
   16    C  MulP   1.9996  1.9996 sum   3.9993
   17    C  MulP   1.9996  1.9996 sum   3.9993
   18    C  MulP   1.9994  1.9994 sum   3.9988
   19    C  MulP   2.0000  2.0000 sum   3.9999
   20    C  MulP   2.0015  2.0015 sum   4.0030
     ..........
     ......

 Sum of MulP: up   =   267.50000 down          =   267.50000
              total=   535.00000 ideal(neutral)=   535.00000
<DFT>  Total Spin Moment (muB) =  0.000000000000
<DFT>  Mixing_weight= 0.030000000000
<DFT>  Uele   = -256.066422356986  dUele     =   0.342158160126
<DFT>  NormRD =    0.115386718611  Criterion =   0.000000010000

******************* MD= 1  SCF=16 *******************
<Poisson>  Poisson's equation using FFT...
<Set_Hamiltonian>  Hamiltonian matrix for VNA+dVH+Vxc...
<Band>  Solving the eigenvalue problem...
 KGrids1:  -0.43750  -0.31250  -0.18750  -0.06250   0.06250   0.18750   0.31250   0.43750 
 KGrids2:  -0.43750  -0.31250  -0.18750  -0.06250   0.06250   0.18750   0.31250   0.43750 
 KGrids3:   0.00000 
<Band_DFT>  Eigen, time=14.197190
<Band_DFT>  DM, time=0.000000
    1    C  MulP   1.9997  1.9997 sum   3.9994
    2    C  MulP   1.9995  1.9995 sum   3.9989
    3    C  MulP   2.0001  2.0001 sum   4.0002
    4    C  MulP   1.9995  1.9995 sum   3.9989
    5    C  MulP   1.9997  1.9997 sum   3.9993
    6    C  MulP   1.9995  1.9995 sum   3.9990
    7    C  MulP   1.9996  1.9996 sum   3.9992
    8    C  MulP   1.9995  1.9995 sum   3.9990
    9    C  MulP   1.9997  1.9997 sum   3.9995
   10    C  MulP   1.9996  1.9996 sum   3.9992
   11    C  MulP   2.0002  2.0002 sum   4.0004
   12    C  MulP   2.0000  2.0000 sum   4.0001
   13    C  MulP   1.9996  1.9996 sum   3.9993
   14    C  MulP   1.9996  1.9996 sum   3.9992
   15    C  MulP   1.9997  1.9997 sum   3.9993
   16    C  MulP   1.9996  1.9996 sum   3.9993
   17    C  MulP   1.9996  1.9996 sum   3.9993
   18    C  MulP   1.9994  1.9994 sum   3.9988
   19    C  MulP   2.0000  2.0000 sum   4.0000
   20    C  MulP   2.0015  2.0015 sum   4.0029
     ..........
     ......

 Sum of MulP: up   =   267.50000 down          =   267.50000
              total=   535.00000 ideal(neutral)=   535.00000
<DFT>  Total Spin Moment (muB) =  0.000000000000
<DFT>  Mixing_weight= 0.030000000000
<DFT>  Uele   = -258.015312349700  dUele     =   1.948889992714
<DFT>  NormRD =    0.013500045079  Criterion =   0.000000010000

******************* MD= 1  SCF=17 *******************
<Poisson>  Poisson's equation using FFT...
<Set_Hamiltonian>  Hamiltonian matrix for VNA+dVH+Vxc...
<Band>  Solving the eigenvalue problem...
 KGrids1:  -0.43750  -0.31250  -0.18750  -0.06250   0.06250   0.18750   0.31250   0.43750 
 KGrids2:  -0.43750  -0.31250  -0.18750  -0.06250   0.06250   0.18750   0.31250   0.43750 
 KGrids3:   0.00000 
<Band_DFT>  Eigen, time=14.147069
<Band_DFT>  DM, time=0.000001
    1    C  MulP   1.9997  1.9997 sum   3.9994
    2    C  MulP   1.9996  1.9996 sum   3.9991
    3    C  MulP   2.0003  2.0003 sum   4.0005
    4    C  MulP   1.9995  1.9995 sum   3.9991
    5    C  MulP   1.9997  1.9997 sum   3.9995
    6    C  MulP   1.9995  1.9995 sum   3.9990
    7    C  MulP   1.9996  1.9996 sum   3.9993
    8    C  MulP   1.9995  1.9995 sum   3.9991
    9    C  MulP   1.9997  1.9997 sum   3.9995
   10    C  MulP   1.9997  1.9997 sum   3.9993
   11    C  MulP   2.0003  2.0003 sum   4.0005
   12    C  MulP   2.0002  2.0002 sum   4.0005
   13    C  MulP   1.9998  1.9998 sum   3.9995
   14    C  MulP   1.9996  1.9996 sum   3.9993
   15    C  MulP   1.9997  1.9997 sum   3.9995
   16    C  MulP   1.9996  1.9996 sum   3.9993
   17    C  MulP   1.9996  1.9996 sum   3.9993
   18    C  MulP   1.9993  1.9993 sum   3.9986
   19    C  MulP   1.9999  1.9999 sum   3.9999
   20    C  MulP   2.0015  2.0015 sum   4.0030
     ..........
     ......

 Sum of MulP: up   =   267.50000 down          =   267.50000
              total=   535.00000 ideal(neutral)=   535.00000
<DFT>  Total Spin Moment (muB) =  0.000000000000
<DFT>  Mixing_weight= 0.030000000000
<DFT>  Uele   = -258.175917222283  dUele     =   0.160604872583
<DFT>  NormRD =    0.016020289843  Criterion =   0.000000010000

******************* MD= 1  SCF=18 *******************
<Poisson>  Poisson's equation using FFT...
<Set_Hamiltonian>  Hamiltonian matrix for VNA+dVH+Vxc...
<Band>  Solving the eigenvalue problem...
 KGrids1:  -0.43750  -0.31250  -0.18750  -0.06250   0.06250   0.18750   0.31250   0.43750 
 KGrids2:  -0.43750  -0.31250  -0.18750  -0.06250   0.06250   0.18750   0.31250   0.43750 
 KGrids3:   0.00000 
<Band_DFT>  Eigen, time=14.125487
<Band_DFT>  DM, time=0.000001
    1    C  MulP   1.9997  1.9997 sum   3.9993
    2    C  MulP   1.9994  1.9994 sum   3.9989
    3    C  MulP   2.0001  2.0001 sum   4.0002
    4    C  MulP   1.9994  1.9994 sum   3.9989
    5    C  MulP   1.9996  1.9996 sum   3.9993
    6    C  MulP   1.9995  1.9995 sum   3.9990
    7    C  MulP   1.9996  1.9996 sum   3.9992
    8    C  MulP   1.9995  1.9995 sum   3.9989
    9    C  MulP   1.9997  1.9997 sum   3.9994
   10    C  MulP   1.9996  1.9996 sum   3.9992
   11    C  MulP   2.0002  2.0002 sum   4.0005
   12    C  MulP   2.0000  2.0000 sum   4.0001
   13    C  MulP   1.9996  1.9996 sum   3.9992
   14    C  MulP   1.9996  1.9996 sum   3.9991
   15    C  MulP   1.9996  1.9996 sum   3.9993
   16    C  MulP   1.9996  1.9996 sum   3.9992
   17    C  MulP   1.9996  1.9996 sum   3.9992
   18    C  MulP   1.9994  1.9994 sum   3.9989
   19    C  MulP   2.0000  2.0000 sum   4.0000
   20    C  MulP   2.0016  2.0016 sum   4.0031
     ..........
     ......

 Sum of MulP: up   =   267.50000 down          =   267.50000
              total=   535.00000 ideal(neutral)=   535.00000
<DFT>  Total Spin Moment (muB) =  0.000000000000
<DFT>  Mixing_weight= 0.030000000000
<DFT>  Uele   = -258.218948550513  dUele     =   0.043031328230
<DFT>  NormRD =    0.004355652501  Criterion =   0.000000010000

******************* MD= 1  SCF=19 *******************
<Poisson>  Poisson's equation using FFT...
<Set_Hamiltonian>  Hamiltonian matrix for VNA+dVH+Vxc...
<Band>  Solving the eigenvalue problem...
 KGrids1:  -0.43750  -0.31250  -0.18750  -0.06250   0.06250   0.18750   0.31250   0.43750 
 KGrids2:  -0.43750  -0.31250  -0.18750  -0.06250   0.06250   0.18750   0.31250   0.43750 
 KGrids3:   0.00000 
<Band_DFT>  Eigen, time=14.199730
<Band_DFT>  DM, time=0.000000
    1    C  MulP   1.9997  1.9997 sum   3.9995
    2    C  MulP   1.9996  1.9996 sum   3.9991
    3    C  MulP   2.0002  2.0002 sum   4.0005
    4    C  MulP   1.9995  1.9995 sum   3.9991
    5    C  MulP   1.9998  1.9998 sum   3.9995
    6    C  MulP   1.9996  1.9996 sum   3.9991
    7    C  MulP   1.9997  1.9997 sum   3.9993
    8    C  MulP   1.9996  1.9996 sum   3.9991
    9    C  MulP   1.9998  1.9998 sum   3.9995
   10    C  MulP   1.9997  1.9997 sum   3.9993
   11    C  MulP   2.0002  2.0002 sum   4.0004
   12    C  MulP   2.0002  2.0002 sum   4.0003
   13    C  MulP   1.9997  1.9997 sum   3.9995
   14    C  MulP   1.9997  1.9997 sum   3.9993
   15    C  MulP   1.9998  1.9998 sum   3.9995
   16    C  MulP   1.9997  1.9997 sum   3.9993
   17    C  MulP   1.9997  1.9997 sum   3.9993
   18    C  MulP   1.9993  1.9993 sum   3.9987
   19    C  MulP   1.9999  1.9999 sum   3.9998
   20    C  MulP   2.0012  2.0012 sum   4.0025
     ..........
     ......

 Sum of MulP: up   =   267.50000 down          =   267.50000
              total=   535.00000 ideal(neutral)=   535.00000
<DFT>  Total Spin Moment (muB) =  0.000000000000
<DFT>  Mixing_weight= 0.030000000000
<DFT>  Uele   = -258.273744008351  dUele     =   0.054795457838
<DFT>  NormRD =    0.007317793558  Criterion =   0.000000010000

******************* MD= 1  SCF=20 *******************
<Poisson>  Poisson's equation using FFT...
<Set_Hamiltonian>  Hamiltonian matrix for VNA+dVH+Vxc...
<Band>  Solving the eigenvalue problem...
 KGrids1:  -0.43750  -0.31250  -0.18750  -0.06250   0.06250   0.18750   0.31250   0.43750 
 KGrids2:  -0.43750  -0.31250  -0.18750  -0.06250   0.06250   0.18750   0.31250   0.43750 
 KGrids3:   0.00000 
<Band_DFT>  Eigen, time=14.157058
<Band_DFT>  DM, time=0.000000
    1    C  MulP   1.9997  1.9997 sum   3.9994
    2    C  MulP   1.9995  1.9995 sum   3.9990
    3    C  MulP   2.0002  2.0002 sum   4.0003
    4    C  MulP   1.9995  1.9995 sum   3.9989
    5    C  MulP   1.9997  1.9997 sum   3.9993
    6    C  MulP   1.9995  1.9995 sum   3.9990
    7    C  MulP   1.9996  1.9996 sum   3.9992
    8    C  MulP   1.9995  1.9995 sum   3.9990
    9    C  MulP   1.9997  1.9997 sum   3.9994
   10    C  MulP   1.9996  1.9996 sum   3.9992
   11    C  MulP   2.0002  2.0002 sum   4.0005
   12    C  MulP   2.0001  2.0001 sum   4.0003
   13    C  MulP   1.9997  1.9997 sum   3.9993
   14    C  MulP   1.9996  1.9996 sum   3.9992
   15    C  MulP   1.9997  1.9997 sum   3.9993
   16    C  MulP   1.9996  1.9996 sum   3.9992
   17    C  MulP   1.9996  1.9996 sum   3.9993
   18    C  MulP   1.9994  1.9994 sum   3.9988
   19    C  MulP   2.0000  2.0000 sum   4.0000
   20    C  MulP   2.0016  2.0016 sum   4.0031
     ..........
     ......

 Sum of MulP: up   =   267.50000 down          =   267.50000
              total=   535.00000 ideal(neutral)=   535.00000
<DFT>  Total Spin Moment (muB) =  0.000000000000
<DFT>  Mixing_weight= 0.030000000000
<DFT>  Uele   = -258.301003688848  dUele     =   0.027259680498
<DFT>  NormRD =    0.001241589343  Criterion =   0.000000010000

******************* MD= 1  SCF=21 *******************
<Poisson>  Poisson's equation using FFT...
<Set_Hamiltonian>  Hamiltonian matrix for VNA+dVH+Vxc...
<Band>  Solving the eigenvalue problem...
 KGrids1:  -0.43750  -0.31250  -0.18750  -0.06250   0.06250   0.18750   0.31250   0.43750 
 KGrids2:  -0.43750  -0.31250  -0.18750  -0.06250   0.06250   0.18750   0.31250   0.43750 
 KGrids3:   0.00000 
<Band_DFT>  Eigen, time=14.128639
<Band_DFT>  DM, time=0.000000
    1    C  MulP   1.9997  1.9997 sum   3.9994
    2    C  MulP   1.9995  1.9995 sum   3.9990
    3    C  MulP   2.0001  2.0001 sum   4.0003
    4    C  MulP   1.9995  1.9995 sum   3.9989
    5    C  MulP   1.9997  1.9997 sum   3.9993
    6    C  MulP   1.9995  1.9995 sum   3.9990
    7    C  MulP   1.9996  1.9996 sum   3.9993
    8    C  MulP   1.9995  1.9995 sum   3.9990
    9    C  MulP   1.9997  1.9997 sum   3.9995
   10    C  MulP   1.9996  1.9996 sum   3.9992
   11    C  MulP   2.0002  2.0002 sum   4.0004
   12    C  MulP   2.0001  2.0001 sum   4.0001
   13    C  MulP   1.9997  1.9997 sum   3.9993
   14    C  MulP   1.9996  1.9996 sum   3.9992
   15    C  MulP   1.9997  1.9997 sum   3.9994
   16    C  MulP   1.9996  1.9996 sum   3.9993
   17    C  MulP   1.9996  1.9996 sum   3.9993
   18    C  MulP   1.9994  1.9994 sum   3.9988
   19    C  MulP   2.0000  2.0000 sum   3.9999
   20    C  MulP   2.0014  2.0014 sum   4.0029
     ..........
     ......

 Sum of MulP: up   =   267.50000 down          =   267.50000
              total=   535.00000 ideal(neutral)=   535.00000
<DFT>  Total Spin Moment (muB) =  0.000000000000
<DFT>  Mixing_weight= 0.030000000000
<DFT>  Uele   = -258.309251433123  dUele     =   0.008247744275
<DFT>  NormRD =    0.000903569705  Criterion =   0.000000010000

******************* MD= 1  SCF=22 *******************
<Poisson>  Poisson's equation using FFT...
<Set_Hamiltonian>  Hamiltonian matrix for VNA+dVH+Vxc...
<Band>  Solving the eigenvalue problem...
 KGrids1:  -0.43750  -0.31250  -0.18750  -0.06250   0.06250   0.18750   0.31250   0.43750 
 KGrids2:  -0.43750  -0.31250  -0.18750  -0.06250   0.06250   0.18750   0.31250   0.43750 
 KGrids3:   0.00000 
<Band_DFT>  Eigen, time=14.108877
<Band_DFT>  DM, time=0.000000
    1    C  MulP   1.9997  1.9997 sum   3.9994
    2    C  MulP   1.9995  1.9995 sum   3.9990
    3    C  MulP   2.0002  2.0002 sum   4.0003
    4    C  MulP   1.9995  1.9995 sum   3.9990
    5    C  MulP   1.9997  1.9997 sum   3.9994
    6    C  MulP   1.9995  1.9995 sum   3.9990
    7    C  MulP   1.9996  1.9996 sum   3.9992
    8    C  MulP   1.9995  1.9995 sum   3.9990
    9    C  MulP   1.9997  1.9997 sum   3.9995
   10    C  MulP   1.9996  1.9996 sum   3.9992
   11    C  MulP   2.0002  2.0002 sum   4.0005
   12    C  MulP   2.0001  2.0001 sum   4.0002
   13    C  MulP   1.9997  1.9997 sum   3.9993
   14    C  MulP   1.9996  1.9996 sum   3.9992
   15    C  MulP   1.9997  1.9997 sum   3.9994
   16    C  MulP   1.9996  1.9996 sum   3.9993
   17    C  MulP   1.9996  1.9996 sum   3.9993
   18    C  MulP   1.9994  1.9994 sum   3.9988
   19    C  MulP   2.0000  2.0000 sum   3.9999
   20    C  MulP   2.0015  2.0015 sum   4.0030
     ..........
     ......

 Sum of MulP: up   =   267.50000 down          =   267.50000
              total=   535.00000 ideal(neutral)=   535.00000
<DFT>  Total Spin Moment (muB) =  0.000000000000
<DFT>  Mixing_weight= 0.030000000000
<DFT>  Uele   = -258.319608880049  dUele     =   0.010357446926
<DFT>  NormRD =    0.000412587757  Criterion =   0.000000010000

******************* MD= 1  SCF=23 *******************
<Poisson>  Poisson's equation using FFT...
<Set_Hamiltonian>  Hamiltonian matrix for VNA+dVH+Vxc...
<Band>  Solving the eigenvalue problem...
 KGrids1:  -0.43750  -0.31250  -0.18750  -0.06250   0.06250   0.18750   0.31250   0.43750 
 KGrids2:  -0.43750  -0.31250  -0.18750  -0.06250   0.06250   0.18750   0.31250   0.43750 
 KGrids3:   0.00000 
<Band_DFT>  Eigen, time=14.158790
<Band_DFT>  DM, time=0.000000
    1    C  MulP   1.9997  1.9997 sum   3.9994
    2    C  MulP   1.9995  1.9995 sum   3.9990
    3    C  MulP   2.0001  2.0001 sum   4.0003
    4    C  MulP   1.9995  1.9995 sum   3.9989
    5    C  MulP   1.9997  1.9997 sum   3.9993
    6    C  MulP   1.9995  1.9995 sum   3.9990
    7    C  MulP   1.9996  1.9996 sum   3.9992
    8    C  MulP   1.9995  1.9995 sum   3.9990
    9    C  MulP   1.9997  1.9997 sum   3.9995
   10    C  MulP   1.9996  1.9996 sum   3.9992
   11    C  MulP   2.0002  2.0002 sum   4.0005
   12    C  MulP   2.0001  2.0001 sum   4.0002
   13    C  MulP   1.9997  1.9997 sum   3.9993
   14    C  MulP   1.9996  1.9996 sum   3.9992
   15    C  MulP   1.9997  1.9997 sum   3.9994
   16    C  MulP   1.9996  1.9996 sum   3.9993
   17    C  MulP   1.9996  1.9996 sum   3.9993
   18    C  MulP   1.9994  1.9994 sum   3.9988
   19    C  MulP   2.0000  2.0000 sum   3.9999
   20    C  MulP   2.0015  2.0015 sum   4.0030
     ..........
     ......

 Sum of MulP: up   =   267.50000 down          =   267.50000
              total=   535.00000 ideal(neutral)=   535.00000
<DFT>  Total Spin Moment (muB) =  0.000000000000
<DFT>  Mixing_weight= 0.030000000000
<DFT>  Uele   = -258.324813732145  dUele     =   0.005204852096
<DFT>  NormRD =    0.000092682681  Criterion =   0.000000010000

******************* MD= 1  SCF=24 *******************
<Poisson>  Poisson's equation using FFT...
<Set_Hamiltonian>  Hamiltonian matrix for VNA+dVH+Vxc...
<Band>  Solving the eigenvalue problem...
 KGrids1:  -0.43750  -0.31250  -0.18750  -0.06250   0.06250   0.18750   0.31250   0.43750 
 KGrids2:  -0.43750  -0.31250  -0.18750  -0.06250   0.06250   0.18750   0.31250   0.43750 
 KGrids3:   0.00000 
<Band_DFT>  Eigen, time=14.148751
<Band_DFT>  DM, time=0.000001
    1    C  MulP   1.9997  1.9997 sum   3.9994
    2    C  MulP   1.9995  1.9995 sum   3.9990
    3    C  MulP   2.0001  2.0001 sum   4.0003
    4    C  MulP   1.9995  1.9995 sum   3.9989
    5    C  MulP   1.9997  1.9997 sum   3.9993
    6    C  MulP   1.9995  1.9995 sum   3.9990
    7    C  MulP   1.9996  1.9996 sum   3.9993
    8    C  MulP   1.9995  1.9995 sum   3.9990
    9    C  MulP   1.9997  1.9997 sum   3.9995
   10    C  MulP   1.9996  1.9996 sum   3.9992
   11    C  MulP   2.0002  2.0002 sum   4.0005
   12    C  MulP   2.0001  2.0001 sum   4.0002
   13    C  MulP   1.9997  1.9997 sum   3.9993
   14    C  MulP   1.9996  1.9996 sum   3.9992
   15    C  MulP   1.9997  1.9997 sum   3.9994
   16    C  MulP   1.9996  1.9996 sum   3.9993
   17    C  MulP   1.9996  1.9996 sum   3.9993
   18    C  MulP   1.9994  1.9994 sum   3.9988
   19    C  MulP   2.0000  2.0000 sum   4.0000
   20    C  MulP   2.0015  2.0015 sum   4.0030
     ..........
     ......

 Sum of MulP: up   =   267.50000 down          =   267.50000
              total=   535.00000 ideal(neutral)=   535.00000
<DFT>  Total Spin Moment (muB) =  0.000000000000
<DFT>  Mixing_weight= 0.030000000000
<DFT>  Uele   = -258.326630881349  dUele     =   0.001817149204
<DFT>  NormRD =    0.000057290527  Criterion =   0.000000010000

******************* MD= 1  SCF=25 *******************
<Poisson>  Poisson's equation using FFT...
<Set_Hamiltonian>  Hamiltonian matrix for VNA+dVH+Vxc...
<Band>  Solving the eigenvalue problem...
 KGrids1:  -0.43750  -0.31250  -0.18750  -0.06250   0.06250   0.18750   0.31250   0.43750 
 KGrids2:  -0.43750  -0.31250  -0.18750  -0.06250   0.06250   0.18750   0.31250   0.43750 
 KGrids3:   0.00000 
<Band_DFT>  Eigen, time=14.158075
<Band_DFT>  DM, time=0.000001
    1    C  MulP   1.9997  1.9997 sum   3.9994
    2    C  MulP   1.9995  1.9995 sum   3.9990
    3    C  MulP   2.0001  2.0001 sum   4.0003
    4    C  MulP   1.9995  1.9995 sum   3.9989
    5    C  MulP   1.9997  1.9997 sum   3.9993
    6    C  MulP   1.9995  1.9995 sum   3.9990
    7    C  MulP   1.9996  1.9996 sum   3.9992
    8    C  MulP   1.9995  1.9995 sum   3.9990
    9    C  MulP   1.9997  1.9997 sum   3.9995
   10    C  MulP   1.9996  1.9996 sum   3.9992
   11    C  MulP   2.0002  2.0002 sum   4.0005
   12    C  MulP   2.0001  2.0001 sum   4.0002
   13    C  MulP   1.9997  1.9997 sum   3.9993
   14    C  MulP   1.9996  1.9996 sum   3.9992
   15    C  MulP   1.9997  1.9997 sum   3.9994
   16    C  MulP   1.9996  1.9996 sum   3.9993
   17    C  MulP   1.9996  1.9996 sum   3.9993
   18    C  MulP   1.9994  1.9994 sum   3.9988
   19    C  MulP   2.0000  2.0000 sum   3.9999
   20    C  MulP   2.0015  2.0015 sum   4.0030
     ..........
     ......

 Sum of MulP: up   =   267.50000 down          =   267.50000
              total=   535.00000 ideal(neutral)=   535.00000
<DFT>  Total Spin Moment (muB) =  0.000000000000
<DFT>  Mixing_weight= 0.030000000000
<DFT>  Uele   = -258.327468601162  dUele     =   0.000837719812
<DFT>  NormRD =    0.000037661133  Criterion =   0.000000010000

******************* MD= 1  SCF=26 *******************
<Poisson>  Poisson's equation using FFT...
<Set_Hamiltonian>  Hamiltonian matrix for VNA+dVH+Vxc...
<Band>  Solving the eigenvalue problem...
 KGrids1:  -0.43750  -0.31250  -0.18750  -0.06250   0.06250   0.18750   0.31250   0.43750 
 KGrids2:  -0.43750  -0.31250  -0.18750  -0.06250   0.06250   0.18750   0.31250   0.43750 
 KGrids3:   0.00000 
<Band_DFT>  Eigen, time=14.123073
<Band_DFT>  DM, time=0.000000
    1    C  MulP   1.9997  1.9997 sum   3.9994
    2    C  MulP   1.9995  1.9995 sum   3.9990
    3    C  MulP   2.0001  2.0001 sum   4.0003
    4    C  MulP   1.9995  1.9995 sum   3.9989
    5    C  MulP   1.9997  1.9997 sum   3.9993
    6    C  MulP   1.9995  1.9995 sum   3.9990
    7    C  MulP   1.9996  1.9996 sum   3.9992
    8    C  MulP   1.9995  1.9995 sum   3.9990
    9    C  MulP   1.9997  1.9997 sum   3.9995
   10    C  MulP   1.9996  1.9996 sum   3.9992
   11    C  MulP   2.0002  2.0002 sum   4.0005
   12    C  MulP   2.0001  2.0001 sum   4.0002
   13    C  MulP   1.9997  1.9997 sum   3.9993
   14    C  MulP   1.9996  1.9996 sum   3.9992
   15    C  MulP   1.9997  1.9997 sum   3.9994
   16    C  MulP   1.9996  1.9996 sum   3.9993
   17    C  MulP   1.9996  1.9996 sum   3.9993
   18    C  MulP   1.9994  1.9994 sum   3.9988
   19    C  MulP   2.0000  2.0000 sum   4.0000
   20    C  MulP   2.0015  2.0015 sum   4.0030
     ..........
     ......

 Sum of MulP: up   =   267.50000 down          =   267.50000
              total=   535.00000 ideal(neutral)=   535.00000
<DFT>  Total Spin Moment (muB) =  0.000000000000
<DFT>  Mixing_weight= 0.030000000000
<DFT>  Uele   = -258.327895041324  dUele     =   0.000426440162
<DFT>  NormRD =    0.000014936061  Criterion =   0.000000010000

******************* MD= 1  SCF=27 *******************
<Poisson>  Poisson's equation using FFT...
<Set_Hamiltonian>  Hamiltonian matrix for VNA+dVH+Vxc...
<Band>  Solving the eigenvalue problem...
 KGrids1:  -0.43750  -0.31250  -0.18750  -0.06250   0.06250   0.18750   0.31250   0.43750 
 KGrids2:  -0.43750  -0.31250  -0.18750  -0.06250   0.06250   0.18750   0.31250   0.43750 
 KGrids3:   0.00000 
<Band_DFT>  Eigen, time=14.150445
<Band_DFT>  DM, time=0.000000
    1    C  MulP   1.9997  1.9997 sum   3.9994
    2    C  MulP   1.9995  1.9995 sum   3.9990
    3    C  MulP   2.0001  2.0001 sum   4.0003
    4    C  MulP   1.9995  1.9995 sum   3.9989
    5    C  MulP   1.9997  1.9997 sum   3.9993
    6    C  MulP   1.9995  1.9995 sum   3.9990
    7    C  MulP   1.9996  1.9996 sum   3.9992
    8    C  MulP   1.9995  1.9995 sum   3.9990
    9    C  MulP   1.9997  1.9997 sum   3.9995
   10    C  MulP   1.9996  1.9996 sum   3.9992
   11    C  MulP   2.0002  2.0002 sum   4.0005
   12    C  MulP   2.0001  2.0001 sum   4.0002
   13    C  MulP   1.9997  1.9997 sum   3.9993
   14    C  MulP   1.9996  1.9996 sum   3.9992
   15    C  MulP   1.9997  1.9997 sum   3.9994
   16    C  MulP   1.9996  1.9996 sum   3.9993
   17    C  MulP   1.9996  1.9996 sum   3.9993
   18    C  MulP   1.9994  1.9994 sum   3.9988
   19    C  MulP   2.0000  2.0000 sum   3.9999
   20    C  MulP   2.0015  2.0015 sum   4.0030
     ..........
     ......

 Sum of MulP: up   =   267.50000 down          =   267.50000
              total=   535.00000 ideal(neutral)=   535.00000
<DFT>  Total Spin Moment (muB) =  0.000000000000
<DFT>  Mixing_weight= 0.030000000000
<DFT>  Uele   = -258.328207211274  dUele     =   0.000312169950
<DFT>  NormRD =    0.000008767207  Criterion =   0.000000010000

******************* MD= 1  SCF=28 *******************
<Poisson>  Poisson's equation using FFT...
<Set_Hamiltonian>  Hamiltonian matrix for VNA+dVH+Vxc...
<Band>  Solving the eigenvalue problem...
 KGrids1:  -0.43750  -0.31250  -0.18750  -0.06250   0.06250   0.18750   0.31250   0.43750 
 KGrids2:  -0.43750  -0.31250  -0.18750  -0.06250   0.06250   0.18750   0.31250   0.43750 
 KGrids3:   0.00000 
<Band_DFT>  Eigen, time=14.152240
<Band_DFT>  DM, time=0.000000
    1    C  MulP   1.9997  1.9997 sum   3.9994
    2    C  MulP   1.9995  1.9995 sum   3.9990
    3    C  MulP   2.0001  2.0001 sum   4.0003
    4    C  MulP   1.9995  1.9995 sum   3.9989
    5    C  MulP   1.9997  1.9997 sum   3.9993
    6    C  MulP   1.9995  1.9995 sum   3.9990
    7    C  MulP   1.9996  1.9996 sum   3.9992
    8    C  MulP   1.9995  1.9995 sum   3.9990
    9    C  MulP   1.9997  1.9997 sum   3.9995
   10    C  MulP   1.9996  1.9996 sum   3.9992
   11    C  MulP   2.0002  2.0002 sum   4.0005
   12    C  MulP   2.0001  2.0001 sum   4.0002
   13    C  MulP   1.9997  1.9997 sum   3.9993
   14    C  MulP   1.9996  1.9996 sum   3.9992
   15    C  MulP   1.9997  1.9997 sum   3.9994
   16    C  MulP   1.9996  1.9996 sum   3.9993
   17    C  MulP   1.9996  1.9996 sum   3.9993
   18    C  MulP   1.9994  1.9994 sum   3.9988
   19    C  MulP   2.0000  2.0000 sum   3.9999
   20    C  MulP   2.0015  2.0015 sum   4.0030
     ..........
     ......

 Sum of MulP: up   =   267.50000 down          =   267.50000
              total=   535.00000 ideal(neutral)=   535.00000
<DFT>  Total Spin Moment (muB) =  0.000000000000
<DFT>  Mixing_weight= 0.030000000000
<DFT>  Uele   = -258.328354714931  dUele     =   0.000147503657
<DFT>  NormRD =    0.000004348888  Criterion =   0.000000010000

******************* MD= 1  SCF=29 *******************
<Poisson>  Poisson's equation using FFT...
<Set_Hamiltonian>  Hamiltonian matrix for VNA+dVH+Vxc...
<Band>  Solving the eigenvalue problem...
 KGrids1:  -0.43750  -0.31250  -0.18750  -0.06250   0.06250   0.18750   0.31250   0.43750 
 KGrids2:  -0.43750  -0.31250  -0.18750  -0.06250   0.06250   0.18750   0.31250   0.43750 
 KGrids3:   0.00000 
<Band_DFT>  Eigen, time=14.092047
<Band_DFT>  DM, time=0.000000
    1    C  MulP   1.9997  1.9997 sum   3.9994
    2    C  MulP   1.9995  1.9995 sum   3.9990
    3    C  MulP   2.0001  2.0001 sum   4.0003
    4    C  MulP   1.9995  1.9995 sum   3.9989
    5    C  MulP   1.9997  1.9997 sum   3.9993
    6    C  MulP   1.9995  1.9995 sum   3.9990
    7    C  MulP   1.9996  1.9996 sum   3.9992
    8    C  MulP   1.9995  1.9995 sum   3.9990
    9    C  MulP   1.9997  1.9997 sum   3.9995
   10    C  MulP   1.9996  1.9996 sum   3.9992
   11    C  MulP   2.0002  2.0002 sum   4.0005
   12    C  MulP   2.0001  2.0001 sum   4.0002
   13    C  MulP   1.9997  1.9997 sum   3.9993
   14    C  MulP   1.9996  1.9996 sum   3.9992
   15    C  MulP   1.9997  1.9997 sum   3.9994
   16    C  MulP   1.9996  1.9996 sum   3.9993
   17    C  MulP   1.9996  1.9996 sum   3.9993
   18    C  MulP   1.9994  1.9994 sum   3.9988
   19    C  MulP   2.0000  2.0000 sum   3.9999
   20    C  MulP   2.0015  2.0015 sum   4.0030
     ..........
     ......

 Sum of MulP: up   =   267.50000 down          =   267.50000
              total=   535.00000 ideal(neutral)=   535.00000
<DFT>  Total Spin Moment (muB) =  0.000000000000
<DFT>  Mixing_weight= 0.030000000000
<DFT>  Uele   = -258.328464082285  dUele     =   0.000109367354
<DFT>  NormRD =    0.000002094012  Criterion =   0.000000010000

******************* MD= 1  SCF=30 *******************
<Poisson>  Poisson's equation using FFT...
<Set_Hamiltonian>  Hamiltonian matrix for VNA+dVH+Vxc...
<Band>  Solving the eigenvalue problem...
 KGrids1:  -0.43750  -0.31250  -0.18750  -0.06250   0.06250   0.18750   0.31250   0.43750 
 KGrids2:  -0.43750  -0.31250  -0.18750  -0.06250   0.06250   0.18750   0.31250   0.43750 
 KGrids3:   0.00000 
<Band_DFT>  Eigen, time=14.135997
<Band_DFT>  DM, time=0.000000
    1    C  MulP   1.9997  1.9997 sum   3.9994
    2    C  MulP   1.9995  1.9995 sum   3.9990
    3    C  MulP   2.0001  2.0001 sum   4.0003
    4    C  MulP   1.9995  1.9995 sum   3.9989
    5    C  MulP   1.9997  1.9997 sum   3.9993
    6    C  MulP   1.9995  1.9995 sum   3.9990
    7    C  MulP   1.9996  1.9996 sum   3.9992
    8    C  MulP   1.9995  1.9995 sum   3.9990
    9    C  MulP   1.9997  1.9997 sum   3.9995
   10    C  MulP   1.9996  1.9996 sum   3.9992
   11    C  MulP   2.0002  2.0002 sum   4.0005
   12    C  MulP   2.0001  2.0001 sum   4.0002
   13    C  MulP   1.9997  1.9997 sum   3.9993
   14    C  MulP   1.9996  1.9996 sum   3.9992
   15    C  MulP   1.9997  1.9997 sum   3.9994
   16    C  MulP   1.9996  1.9996 sum   3.9993
   17    C  MulP   1.9996  1.9996 sum   3.9993
   18    C  MulP   1.9994  1.9994 sum   3.9988
   19    C  MulP   2.0000  2.0000 sum   3.9999
   20    C  MulP   2.0015  2.0015 sum   4.0030
     ..........
     ......

 Sum of MulP: up   =   267.50000 down          =   267.50000
              total=   535.00000 ideal(neutral)=   535.00000
<DFT>  Total Spin Moment (muB) =  0.000000000000
<DFT>  Mixing_weight= 0.030000000000
<DFT>  Uele   = -258.328531623912  dUele     =   0.000067541627
<DFT>  NormRD =    0.000001053191  Criterion =   0.000000010000

******************* MD= 1  SCF=31 *******************
<Poisson>  Poisson's equation using FFT...
<Set_Hamiltonian>  Hamiltonian matrix for VNA+dVH+Vxc...
<Band>  Solving the eigenvalue problem...
 KGrids1:  -0.43750  -0.31250  -0.18750  -0.06250   0.06250   0.18750   0.31250   0.43750 
 KGrids2:  -0.43750  -0.31250  -0.18750  -0.06250   0.06250   0.18750   0.31250   0.43750 
 KGrids3:   0.00000 
<Band_DFT>  Eigen, time=14.101910
<Band_DFT>  DM, time=0.000000
    1    C  MulP   1.9997  1.9997 sum   3.9994
    2    C  MulP   1.9995  1.9995 sum   3.9990
    3    C  MulP   2.0001  2.0001 sum   4.0003
    4    C  MulP   1.9995  1.9995 sum   3.9989
    5    C  MulP   1.9997  1.9997 sum   3.9993
    6    C  MulP   1.9995  1.9995 sum   3.9990
    7    C  MulP   1.9996  1.9996 sum   3.9992
    8    C  MulP   1.9995  1.9995 sum   3.9990
    9    C  MulP   1.9997  1.9997 sum   3.9995
   10    C  MulP   1.9996  1.9996 sum   3.9992
   11    C  MulP   2.0002  2.0002 sum   4.0005
   12    C  MulP   2.0001  2.0001 sum   4.0002
   13    C  MulP   1.9997  1.9997 sum   3.9993
   14    C  MulP   1.9996  1.9996 sum   3.9992
   15    C  MulP   1.9997  1.9997 sum   3.9994
   16    C  MulP   1.9996  1.9996 sum   3.9993
   17    C  MulP   1.9996  1.9996 sum   3.9993
   18    C  MulP   1.9994  1.9994 sum   3.9988
   19    C  MulP   2.0000  2.0000 sum   3.9999
   20    C  MulP   2.0015  2.0015 sum   4.0030
     ..........
     ......

 Sum of MulP: up   =   267.50000 down          =   267.50000
              total=   535.00000 ideal(neutral)=   535.00000
<DFT>  Total Spin Moment (muB) =  0.000000000000
<DFT>  Mixing_weight= 0.030000000000
<DFT>  Uele   = -258.328559157209  dUele     =   0.000027533298
<DFT>  NormRD =    0.000000572478  Criterion =   0.000000010000

******************* MD= 1  SCF=32 *******************
<Poisson>  Poisson's equation using FFT...
<Set_Hamiltonian>  Hamiltonian matrix for VNA+dVH+Vxc...
<Band>  Solving the eigenvalue problem...
 KGrids1:  -0.43750  -0.31250  -0.18750  -0.06250   0.06250   0.18750   0.31250   0.43750 
 KGrids2:  -0.43750  -0.31250  -0.18750  -0.06250   0.06250   0.18750   0.31250   0.43750 
 KGrids3:   0.00000 
<Band_DFT>  Eigen, time=14.112453
<Band_DFT>  DM, time=0.000000
    1    C  MulP   1.9997  1.9997 sum   3.9994
    2    C  MulP   1.9995  1.9995 sum   3.9990
    3    C  MulP   2.0001  2.0001 sum   4.0003
    4    C  MulP   1.9995  1.9995 sum   3.9989
    5    C  MulP   1.9997  1.9997 sum   3.9993
    6    C  MulP   1.9995  1.9995 sum   3.9990
    7    C  MulP   1.9996  1.9996 sum   3.9992
    8    C  MulP   1.9995  1.9995 sum   3.9990
    9    C  MulP   1.9997  1.9997 sum   3.9995
   10    C  MulP   1.9996  1.9996 sum   3.9992
   11    C  MulP   2.0002  2.0002 sum   4.0005
   12    C  MulP   2.0001  2.0001 sum   4.0002
   13    C  MulP   1.9997  1.9997 sum   3.9993
   14    C  MulP   1.9996  1.9996 sum   3.9992
   15    C  MulP   1.9997  1.9997 sum   3.9994
   16    C  MulP   1.9996  1.9996 sum   3.9993
   17    C  MulP   1.9996  1.9996 sum   3.9993
   18    C  MulP   1.9994  1.9994 sum   3.9988
   19    C  MulP   2.0000  2.0000 sum   3.9999
   20    C  MulP   2.0015  2.0015 sum   4.0030
     ..........
     ......

 Sum of MulP: up   =   267.50000 down          =   267.50000
              total=   535.00000 ideal(neutral)=   535.00000
<DFT>  Total Spin Moment (muB) =  0.000000000000
<DFT>  Mixing_weight= 0.030000000000
<DFT>  Uele   = -258.328572952725  dUele     =   0.000013795516
<DFT>  NormRD =    0.000000340837  Criterion =   0.000000010000

******************* MD= 1  SCF=33 *******************
<Poisson>  Poisson's equation using FFT...
<Set_Hamiltonian>  Hamiltonian matrix for VNA+dVH+Vxc...
<Band>  Solving the eigenvalue problem...
 KGrids1:  -0.43750  -0.31250  -0.18750  -0.06250   0.06250   0.18750   0.31250   0.43750 
 KGrids2:  -0.43750  -0.31250  -0.18750  -0.06250   0.06250   0.18750   0.31250   0.43750 
 KGrids3:   0.00000 
<Band_DFT>  Eigen, time=14.116401
<Band_DFT>  DM, time=0.000000
    1    C  MulP   1.9997  1.9997 sum   3.9994
    2    C  MulP   1.9995  1.9995 sum   3.9990
    3    C  MulP   2.0001  2.0001 sum   4.0003
    4    C  MulP   1.9995  1.9995 sum   3.9989
    5    C  MulP   1.9997  1.9997 sum   3.9993
    6    C  MulP   1.9995  1.9995 sum   3.9990
    7    C  MulP   1.9996  1.9996 sum   3.9992
    8    C  MulP   1.9995  1.9995 sum   3.9990
    9    C  MulP   1.9997  1.9997 sum   3.9995
   10    C  MulP   1.9996  1.9996 sum   3.9992
   11    C  MulP   2.0002  2.0002 sum   4.0005
   12    C  MulP   2.0001  2.0001 sum   4.0002
   13    C  MulP   1.9997  1.9997 sum   3.9993
   14    C  MulP   1.9996  1.9996 sum   3.9992
   15    C  MulP   1.9997  1.9997 sum   3.9994
   16    C  MulP   1.9996  1.9996 sum   3.9993
   17    C  MulP   1.9996  1.9996 sum   3.9993
   18    C  MulP   1.9994  1.9994 sum   3.9988
   19    C  MulP   2.0000  2.0000 sum   3.9999
   20    C  MulP   2.0015  2.0015 sum   4.0030
     ..........
     ......

 Sum of MulP: up   =   267.50000 down          =   267.50000
              total=   535.00000 ideal(neutral)=   535.00000
<DFT>  Total Spin Moment (muB) =  0.000000000000
<DFT>  Mixing_weight= 0.030000000000
<DFT>  Uele   = -258.328586141544  dUele     =   0.000013188819
<DFT>  NormRD =    0.000000160072  Criterion =   0.000000010000

******************* MD= 1  SCF=34 *******************
<Poisson>  Poisson's equation using FFT...
<Set_Hamiltonian>  Hamiltonian matrix for VNA+dVH+Vxc...
<Band>  Solving the eigenvalue problem...
 KGrids1:  -0.43750  -0.31250  -0.18750  -0.06250   0.06250   0.18750   0.31250   0.43750 
 KGrids2:  -0.43750  -0.31250  -0.18750  -0.06250   0.06250   0.18750   0.31250   0.43750 
 KGrids3:   0.00000 
<Band_DFT>  Eigen, time=14.120189
<Band_DFT>  DM, time=0.000000
    1    C  MulP   1.9997  1.9997 sum   3.9994
    2    C  MulP   1.9995  1.9995 sum   3.9990
    3    C  MulP   2.0001  2.0001 sum   4.0003
    4    C  MulP   1.9995  1.9995 sum   3.9989
    5    C  MulP   1.9997  1.9997 sum   3.9993
    6    C  MulP   1.9995  1.9995 sum   3.9990
    7    C  MulP   1.9996  1.9996 sum   3.9992
    8    C  MulP   1.9995  1.9995 sum   3.9990
    9    C  MulP   1.9997  1.9997 sum   3.9995
   10    C  MulP   1.9996  1.9996 sum   3.9992
   11    C  MulP   2.0002  2.0002 sum   4.0005
   12    C  MulP   2.0001  2.0001 sum   4.0002
   13    C  MulP   1.9997  1.9997 sum   3.9993
   14    C  MulP   1.9996  1.9996 sum   3.9992
   15    C  MulP   1.9997  1.9997 sum   3.9994
   16    C  MulP   1.9996  1.9996 sum   3.9993
   17    C  MulP   1.9996  1.9996 sum   3.9993
   18    C  MulP   1.9994  1.9994 sum   3.9988
   19    C  MulP   2.0000  2.0000 sum   3.9999
   20    C  MulP   2.0015  2.0015 sum   4.0030
     ..........
     ......

 Sum of MulP: up   =   267.50000 down          =   267.50000
              total=   535.00000 ideal(neutral)=   535.00000
<DFT>  Total Spin Moment (muB) =  0.000000000000
<DFT>  Mixing_weight= 0.030000000000
<DFT>  Uele   = -258.328593612861  dUele     =   0.000007471317
<DFT>  NormRD =    0.000000051426  Criterion =   0.000000010000

******************* MD= 1  SCF=35 *******************
<Poisson>  Poisson's equation using FFT...
<Set_Hamiltonian>  Hamiltonian matrix for VNA+dVH+Vxc...
<Band>  Solving the eigenvalue problem...
 KGrids1:  -0.43750  -0.31250  -0.18750  -0.06250   0.06250   0.18750   0.31250   0.43750 
 KGrids2:  -0.43750  -0.31250  -0.18750  -0.06250   0.06250   0.18750   0.31250   0.43750 
 KGrids3:   0.00000 
<Band_DFT>  Eigen, time=14.116582
<Band_DFT>  DM, time=0.000000
    1    C  MulP   1.9997  1.9997 sum   3.9994
    2    C  MulP   1.9995  1.9995 sum   3.9990
    3    C  MulP   2.0001  2.0001 sum   4.0003
    4    C  MulP   1.9995  1.9995 sum   3.9989
    5    C  MulP   1.9997  1.9997 sum   3.9993
    6    C  MulP   1.9995  1.9995 sum   3.9990
    7    C  MulP   1.9996  1.9996 sum   3.9992
    8    C  MulP   1.9995  1.9995 sum   3.9990
    9    C  MulP   1.9997  1.9997 sum   3.9995
   10    C  MulP   1.9996  1.9996 sum   3.9992
   11    C  MulP   2.0002  2.0002 sum   4.0005
   12    C  MulP   2.0001  2.0001 sum   4.0002
   13    C  MulP   1.9997  1.9997 sum   3.9993
   14    C  MulP   1.9996  1.9996 sum   3.9992
   15    C  MulP   1.9997  1.9997 sum   3.9994
   16    C  MulP   1.9996  1.9996 sum   3.9993
   17    C  MulP   1.9996  1.9996 sum   3.9993
   18    C  MulP   1.9994  1.9994 sum   3.9988
   19    C  MulP   2.0000  2.0000 sum   3.9999
   20    C  MulP   2.0015  2.0015 sum   4.0030
     ..........
     ......

 Sum of MulP: up   =   267.50000 down          =   267.50000
              total=   535.00000 ideal(neutral)=   535.00000
<DFT>  Total Spin Moment (muB) =  0.000000000000
<DFT>  Mixing_weight= 0.030000000000
<DFT>  Uele   = -258.328595936588  dUele     =   0.000002323726
<DFT>  NormRD =    0.000000019530  Criterion =   0.000000010000

******************* MD= 1  SCF=36 *******************
<Poisson>  Poisson's equation using FFT...
<Set_Hamiltonian>  Hamiltonian matrix for VNA+dVH+Vxc...
<Band>  Solving the eigenvalue problem...
 KGrids1:  -0.43750  -0.31250  -0.18750  -0.06250   0.06250   0.18750   0.31250   0.43750 
 KGrids2:  -0.43750  -0.31250  -0.18750  -0.06250   0.06250   0.18750   0.31250   0.43750 
 KGrids3:   0.00000 
<Band_DFT>  Eigen, time=14.113498
<Band_DFT>  DM, time=0.000001
    1    C  MulP   1.9997  1.9997 sum   3.9994
    2    C  MulP   1.9995  1.9995 sum   3.9990
    3    C  MulP   2.0001  2.0001 sum   4.0003
    4    C  MulP   1.9995  1.9995 sum   3.9989
    5    C  MulP   1.9997  1.9997 sum   3.9993
    6    C  MulP   1.9995  1.9995 sum   3.9990
    7    C  MulP   1.9996  1.9996 sum   3.9992
    8    C  MulP   1.9995  1.9995 sum   3.9990
    9    C  MulP   1.9997  1.9997 sum   3.9995
   10    C  MulP   1.9996  1.9996 sum   3.9992
   11    C  MulP   2.0002  2.0002 sum   4.0005
   12    C  MulP   2.0001  2.0001 sum   4.0002
   13    C  MulP   1.9997  1.9997 sum   3.9993
   14    C  MulP   1.9996  1.9996 sum   3.9992
   15    C  MulP   1.9997  1.9997 sum   3.9994
   16    C  MulP   1.9996  1.9996 sum   3.9993
   17    C  MulP   1.9996  1.9996 sum   3.9993
   18    C  MulP   1.9994  1.9994 sum   3.9988
   19    C  MulP   2.0000  2.0000 sum   3.9999
   20    C  MulP   2.0015  2.0015 sum   4.0030
     ..........
     ......

 Sum of MulP: up   =   267.50000 down          =   267.50000
              total=   535.00000 ideal(neutral)=   535.00000
<DFT>  Total Spin Moment (muB) =  0.000000000000
<DFT>  Mixing_weight= 0.030000000000
<DFT>  Uele   = -258.328596662305  dUele     =   0.000000725717
<DFT>  NormRD =    0.000000006415  Criterion =   0.000000010000

******************* MD= 1  SCF=37 *******************
<Poisson>  Poisson's equation using FFT...
<Set_Hamiltonian>  Hamiltonian matrix for VNA+dVH+Vxc...
<Band>  Solving the eigenvalue problem...
 KGrids1:  -0.43750  -0.31250  -0.18750  -0.06250   0.06250   0.18750   0.31250   0.43750 
 KGrids2:  -0.43750  -0.31250  -0.18750  -0.06250   0.06250   0.18750   0.31250   0.43750 
 KGrids3:   0.00000 
<Band_DFT>  Eigen, time=14.120234
<Band_DFT>  DM, time=0.000000
    1    C  MulP   1.9997  1.9997 sum   3.9994
    2    C  MulP   1.9995  1.9995 sum   3.9990
    3    C  MulP   2.0001  2.0001 sum   4.0003
    4    C  MulP   1.9995  1.9995 sum   3.9989
    5    C  MulP   1.9997  1.9997 sum   3.9993
    6    C  MulP   1.9995  1.9995 sum   3.9990
    7    C  MulP   1.9996  1.9996 sum   3.9992
    8    C  MulP   1.9995  1.9995 sum   3.9990
    9    C  MulP   1.9997  1.9997 sum   3.9995
   10    C  MulP   1.9996  1.9996 sum   3.9992
   11    C  MulP   2.0002  2.0002 sum   4.0005
   12    C  MulP   2.0001  2.0001 sum   4.0002
   13    C  MulP   1.9997  1.9997 sum   3.9993
   14    C  MulP   1.9996  1.9996 sum   3.9992
   15    C  MulP   1.9997  1.9997 sum   3.9994
   16    C  MulP   1.9996  1.9996 sum   3.9993
   17    C  MulP   1.9996  1.9996 sum   3.9993
   18    C  MulP   1.9994  1.9994 sum   3.9988
   19    C  MulP   2.0000  2.0000 sum   3.9999
   20    C  MulP   2.0015  2.0015 sum   4.0030
     ..........
     ......

 Sum of MulP: up   =   267.50000 down          =   267.50000
              total=   535.00000 ideal(neutral)=   535.00000
<DFT>  Total Spin Moment (muB) =  0.000000000000
<DFT>  Mixing_weight= 0.030000000000
<DFT>  Uele   = -258.328596832181  dUele     =   0.000000169876
<DFT>  NormRD =    0.000000002362  Criterion =   0.000000010000

******************* MD= 1  SCF=38 *******************
<Poisson>  Poisson's equation using FFT...
<Set_Hamiltonian>  Hamiltonian matrix for VNA+dVH+Vxc...
<Band>  Solving the eigenvalue problem...
 KGrids1:  -0.43750  -0.31250  -0.18750  -0.06250   0.06250   0.18750   0.31250   0.43750 
 KGrids2:  -0.43750  -0.31250  -0.18750  -0.06250   0.06250   0.18750   0.31250   0.43750 
 KGrids3:   0.00000 
<Band_DFT>  Eigen, time=14.137853
<Band_DFT>  DM, time=0.000000
    1    C  MulP   1.9997  1.9997 sum   3.9994
    2    C  MulP   1.9995  1.9995 sum   3.9990
    3    C  MulP   2.0001  2.0001 sum   4.0003
    4    C  MulP   1.9995  1.9995 sum   3.9989
    5    C  MulP   1.9997  1.9997 sum   3.9993
    6    C  MulP   1.9995  1.9995 sum   3.9990
    7    C  MulP   1.9996  1.9996 sum   3.9992
    8    C  MulP   1.9995  1.9995 sum   3.9990
    9    C  MulP   1.9997  1.9997 sum   3.9995
   10    C  MulP   1.9996  1.9996 sum   3.9992
   11    C  MulP   2.0002  2.0002 sum   4.0005
   12    C  MulP   2.0001  2.0001 sum   4.0002
   13    C  MulP   1.9997  1.9997 sum   3.9993
   14    C  MulP   1.9996  1.9996 sum   3.9992
[...]
<Band>  Solving the eigenvalue problem...
 KGrids1:  -0.43750  -0.31250  -0.18750  -0.06250   0.06250   0.18750   0.31250   0.43750 
 KGrids2:  -0.43750  -0.31250  -0.18750  -0.06250   0.06250   0.18750   0.31250   0.43750 
 KGrids3:   0.00000 
<Band_DFT>  Eigen, time=14.282484
<Band_DFT>  DM, time=0.000001
    1    C  MulP   1.9997  1.9997 sum   3.9995
    2    C  MulP   1.9995  1.9995 sum   3.9989
    3    C  MulP   2.0002  2.0002 sum   4.0004
    4    C  MulP   1.9995  1.9995 sum   3.9989
    5    C  MulP   1.9997  1.9997 sum   3.9994
    6    C  MulP   1.9995  1.9995 sum   3.9990
    7    C  MulP   1.9997  1.9997 sum   3.9993
    8    C  MulP   1.9995  1.9995 sum   3.9990
    9    C  MulP   1.9997  1.9997 sum   3.9995
   10    C  MulP   1.9997  1.9997 sum   3.9993
   11    C  MulP   2.0002  2.0002 sum   4.0005
   12    C  MulP   2.0001  2.0001 sum   4.0003
   13    C  MulP   1.9997  1.9997 sum   3.9994
   14    C  MulP   1.9996  1.9996 sum   3.9993
   15    C  MulP   1.9997  1.9997 sum   3.9994
   16    C  MulP   1.9997  1.9997 sum   3.9993
   17    C  MulP   1.9997  1.9997 sum   3.9994
   18    C  MulP   1.9994  1.9994 sum   3.9989
   19    C  MulP   2.0002  2.0002 sum   4.0004
   20    C  MulP   2.0017  2.0017 sum   4.0035
     ..........
     ......

 Sum of MulP: up   =   267.50000 down          =   267.50000
              total=   535.00000 ideal(neutral)=   535.00000
<DFT>  Total Spin Moment (muB) =  0.000000000000
<DFT>  Mixing_weight= 0.030000000000
<DFT>  Uele   = -258.178626653642  dUele     =   0.000000008671
<DFT>  NormRD =    0.000000018254  Criterion =   0.000000010000
<MD=47>  Force calculation
  Force calculation #1
  Force calculation #2
  Force calculation #3
  Force calculation #4
  Force calculation #5
<MD=47>  Total Energy
  Force calculation #6
  Force calculation #7

*******************************************************
                  Dipole moment (Debye)                 
*******************************************************

 Absolute D       23.41821545

                      Dx                Dy                Dz
 Total             21.81460892       -8.50737068       -0.40037064
 Core           12671.70628014    21973.05711146    27432.91442242
 Electron      -12649.89167122   -21981.56448214   -27433.31479306
 Back ground       -0.00000000       -0.00000000       -0.00000000

*******************************************************
                Total Energy (Hartree) at MD =47        
*******************************************************

  Uele  =    -258.178626653642

  Ukin  =     573.012086240289
  UH0   =   -7654.781312089774
  UH1   =       1.932873666667
  Una   =    -420.896799109726
  Unl   =     -59.400904943889
  Uxc0  =    -130.895367107017
  Uxc1  =    -130.895367107017
  Ucore =    7018.818113880553
  Uhub  =       0.000000000000
  Ucs   =       0.000000000000
  Uzs   =       0.000000000000
  Uzo   =       0.000000000000
  Uef   =       0.000000000000
  UvdW  =       0.000000000000
  Uch   =       0.000000000000
  Utot  =    -803.106676569915

  UpV   =       0.000000000000
  Enpy  =    -803.106676569915
  Note:

  Uele:   band energy
  Ukin:   kinetic energy
  UH0:    electric part of screened Coulomb energy
  UH1:    difference electron-electron Coulomb energy
  Una:    neutral atom potential energy
  Unl:    non-local potential energy
  Uxc0:   exchange-correlation energy for alpha spin
  Uxc1:   exchange-correlation energy for beta spin
  Ucore:  core-core Coulomb energy
  Uhub:   LDA+U energy
  Ucs:    constraint energy for spin orientation
  Uzs:    Zeeman term for spin magnetic moment
  Uzo:    Zeeman term for orbital magnetic moment
  Uef:    electric energy by electric field
  UvdW:   semi-empirical vdW energy 
  Uch:    penalty term to create a core hole
  UpV:    pressure times volume
  Enpy:   Enthalpy = Utot + UpV
  (see also PRB 72, 045121(2005) for the energy contributions)


*******************************************************
           Computational times (s) at MD =47            
*******************************************************

  DFT in total      =  279.25458

  Set_OLP_Kin       =    1.11738
  Set_Nonlocal      =    2.95910
  Set_ProExpn_VNA   =    4.78318
  Set_Hamiltonian   =   15.20933
  Poisson           =    0.18818
  diagonalization   =  240.54633
  Mixing_DM         =    1.64489
  Force             =    3.92733
  Total_Energy      =    1.28755
  Set_Aden_Grid     =    0.23630
  Set_Orbitals_Grid =    0.56238
  Set_Density_Grid  =    5.94714
  RestartFileDFT    =    0.26006
  Mulliken_Charge   =    0.01263
  FFT(2D)_Density   =    0.20470

The SCF was achieved at MD=  47

*******************************************************
             MD or geometry opt. at MD =47              
*******************************************************


The geometry optimization was achieved.
<RF>  |Maximum force| (Hartree/Bohr) = 0.000064049241
<RF>  Criterion       (Hartree/Bohr) = 0.000100000000

     atom=   1, XYZ(ang) Fxyz(a.u.)=   0.0122    1.4197   10.4251    -0.0000   -0.0000   -0.0000
     atom=   2, XYZ(ang) Fxyz(a.u.)=  -1.2203    3.5579   10.4452    -0.0000   -0.0000   -0.0000
     atom=   3, XYZ(ang) Fxyz(a.u.)=  -2.4547    5.6942   10.4441    -0.0000   -0.0000   -0.0000
     atom=   4, XYZ(ang) Fxyz(a.u.)=  -3.6872    7.8314   10.4076     0.0000   -0.0000   -0.0000
     atom=   5, XYZ(ang) Fxyz(a.u.)=  -4.9229    9.9676   10.3749    -0.0000   -0.0000   -0.0000
     atom=   6, XYZ(ang) Fxyz(a.u.)=  -6.1565   12.1036   10.3643     0.0000   -0.0000   -0.0000
     atom=   7, XYZ(ang) Fxyz(a.u.)=  -7.3896   14.2409   10.3753    -0.0000    0.0000    0.0000
     atom=   8, XYZ(ang) Fxyz(a.u.)=  -8.6239   16.3774   10.3983    -0.0000   -0.0000   -0.0000
     atom=   9, XYZ(ang) Fxyz(a.u.)=   2.4795    1.4197   10.4214    -0.0000   -0.0000   -0.0000
     atom=  10, XYZ(ang) Fxyz(a.u.)=   1.2458    3.5569   10.4697     0.0000   -0.0000   -0.0000
     atom=  11, XYZ(ang) Fxyz(a.u.)=   0.0142    5.6931   10.5138    -0.0000   -0.0000   -0.0000
     atom=  12, XYZ(ang) Fxyz(a.u.)=  -1.2208    7.8331   10.4886     0.0000   -0.0000    0.0000
     atom=  13, XYZ(ang) Fxyz(a.u.)=  -2.4545    9.9673   10.4159     0.0000   -0.0000   -0.0000
     atom=  14, XYZ(ang) Fxyz(a.u.)=  -3.6889   12.1043   10.3727     0.0000   -0.0000   -0.0000
     atom=  15, XYZ(ang) Fxyz(a.u.)=  -4.9234   14.2408   10.3637     0.0000   -0.0000   -0.0000
     atom=  16, XYZ(ang) Fxyz(a.u.)=  -6.1565   16.3766   10.3827     0.0000   -0.0000   -0.0000
     atom=  17, XYZ(ang) Fxyz(a.u.)=   4.9456    1.4197   10.4180     0.0000   -0.0000    0.0000
     atom=  18, XYZ(ang) Fxyz(a.u.)=   3.7124    3.5541   10.4837     0.0000   -0.0000    0.0000
     atom=  19, XYZ(ang) Fxyz(a.u.)=   2.4808    5.6924   10.5707     0.0000   -0.0000    0.0000
     atom=  20, XYZ(ang) Fxyz(a.u.)=   1.2422    7.8292   10.6474    -0.0000   -0.0000    0.0000
     atom=  21, XYZ(ang) Fxyz(a.u.)=   0.0122    9.9700   10.5211    -0.0000   -0.0000    0.0000
     atom=  22, XYZ(ang) Fxyz(a.u.)=  -1.2237   12.1050   10.4291     0.0000   -0.0000   -0.0000
     atom=  23, XYZ(ang) Fxyz(a.u.)=  -2.4560   14.2402   10.3848     0.0000    0.0000    0.0000
     atom=  24, XYZ(ang) Fxyz(a.u.)=  -3.6892   16.3773   10.3836     0.0000   -0.0000   -0.0000
     atom=  25, XYZ(ang) Fxyz(a.u.)=   7.4127    1.4197   10.4171    -0.0000   -0.0000   -0.0000
     atom=  26, XYZ(ang) Fxyz(a.u.)=   6.1789    3.5570   10.4714     0.0000   -0.0000   -0.0000
     atom=  27, XYZ(ang) Fxyz(a.u.)=   4.9431    5.6920   10.5756    -0.0000    0.0000   -0.0000
     atom=  28, XYZ(ang) Fxyz(a.u.)=   3.7104    7.8086   10.7822    -0.0000   -0.0000    0.0000
     atom=  29, XYZ(ang) Fxyz(a.u.)=   2.4553    9.9812   10.7473    -0.0000   -0.0000    0.0000
     atom=  30, XYZ(ang) Fxyz(a.u.)=   1.2430   12.1027   10.5285     0.0000   -0.0000   -0.0000
     atom=  31, XYZ(ang) Fxyz(a.u.)=   0.0117   14.2401   10.4373     0.0000   -0.0000   -0.0000
     atom=  32, XYZ(ang) Fxyz(a.u.)=  -1.2227   16.3771   10.4048     0.0000   -0.0000   -0.0000
     atom=  33, XYZ(ang) Fxyz(a.u.)=   9.8805    1.4201   10.4220    -0.0000   -0.0000   -0.0000
     atom=  34, XYZ(ang) Fxyz(a.u.)=   8.6451    3.5579   10.4493     0.0000   -0.0000    0.0000
     atom=  35, XYZ(ang) Fxyz(a.u.)=   7.4106    5.6930   10.5263     0.0000   -0.0000   -0.0000
     atom=  36, XYZ(ang) Fxyz(a.u.)=   6.1819    7.8295   10.6614    -0.0000    0.0000    0.0000
     atom=  37, XYZ(ang) Fxyz(a.u.)=   4.9654    9.9806   10.7672    -0.0000   -0.0000   -0.0000
     atom=  38, XYZ(ang) Fxyz(a.u.)=   3.7125   12.1072   10.6489    -0.0000   -0.0000   -0.0000
     atom=  39, XYZ(ang) Fxyz(a.u.)=   2.4770   14.2388   10.5099    -0.0000   -0.0000   -0.0000
     atom=  40, XYZ(ang) Fxyz(a.u.)=   1.2452   16.3754   10.4401    -0.0000   -0.0000    0.0000
     atom=  41, XYZ(ang) Fxyz(a.u.)=  12.3473    1.4195   10.4311     0.0000   -0.0000   -0.0000
     atom=  42, XYZ(ang) Fxyz(a.u.)=  11.1132    3.5568   10.4275     0.0000   -0.0000   -0.0000
     atom=  43, XYZ(ang) Fxyz(a.u.)=   9.8796    5.6942   10.4588     0.0000   -0.0000   -0.0000
     atom=  44, XYZ(ang) Fxyz(a.u.)=   8.6460    7.8332   10.5141    -0.0000   -0.0000    0.0000
     atom=  45, XYZ(ang) Fxyz(a.u.)=   7.4136    9.9709   10.5575     0.0000   -0.0000   -0.0000
     atom=  46, XYZ(ang) Fxyz(a.u.)=   6.1823   12.1033   10.5602    -0.0000   -0.0000   -0.0000
     atom=  47, XYZ(ang) Fxyz(a.u.)=   4.9481   14.2391   10.5232     0.0000   -0.0000   -0.0000
     atom=  48, XYZ(ang) Fxyz(a.u.)=   3.7126   16.3766   10.4679    -0.0000    0.0000    0.0000
     atom=  49, XYZ(ang) Fxyz(a.u.)=  14.8160    1.4195   10.4340    -0.0000   -0.0000    0.0000
     atom=  50, XYZ(ang) Fxyz(a.u.)=  13.5816    3.5570   10.4173     0.0000   -0.0000   -0.0000
     atom=  51, XYZ(ang) Fxyz(a.u.)=  12.3475    5.6946   10.4137     0.0000   -0.0000    0.0000
     atom=  52, XYZ(ang) Fxyz(a.u.)=  11.1123    7.8315   10.4264     0.0000   -0.0000    0.0000
     atom=  53, XYZ(ang) Fxyz(a.u.)=   9.8801    9.9677   10.4477    -0.0000   -0.0000    0.0000
     atom=  54, XYZ(ang) Fxyz(a.u.)=   8.6495   12.1055   10.4671     0.0000   -0.0000    0.0000
     atom=  55, XYZ(ang) Fxyz(a.u.)=   7.4139   14.2405   10.4674     0.0000   -0.0000    0.0000
     atom=  56, XYZ(ang) Fxyz(a.u.)=   6.1799   16.3756   10.4547    -0.0000   -0.0000    0.0000
     atom=  57, XYZ(ang) Fxyz(a.u.)=  17.2828    1.4202   10.4292    -0.0000    0.0000   -0.0000
     atom=  58, XYZ(ang) Fxyz(a.u.)=  16.0500    3.5568   10.4236    -0.0000   -0.0000   -0.0000
     atom=  59, XYZ(ang) Fxyz(a.u.)=  14.8157    5.6946   10.4070     0.0000   -0.0000   -0.0000
     atom=  60, XYZ(ang) Fxyz(a.u.)=  13.5817    7.8305   10.3904     0.0000   -0.0000   -0.0000
     atom=  61, XYZ(ang) Fxyz(a.u.)=  12.3480    9.9677   10.3876     0.0000   -0.0000   -0.0000
     atom=  62, XYZ(ang) Fxyz(a.u.)=  11.1145   12.1046   10.3979     0.0000   -0.0000    0.0000
     atom=  63, XYZ(ang) Fxyz(a.u.)=   9.8815   14.2405   10.4133    -0.0000   -0.0000    0.0000
     atom=  64, XYZ(ang) Fxyz(a.u.)=   8.6480   16.3773   10.4255    -0.0000   -0.0000    0.0000
     atom=  65, XYZ(ang) Fxyz(a.u.)=   1.2453    0.7076   10.4125     0.0000   -0.0000    0.0000
     atom=  66, XYZ(ang) Fxyz(a.u.)=   0.0129    2.8455   10.4448    -0.0000   -0.0000    0.0000
     atom=  67, XYZ(ang) Fxyz(a.u.)=  -1.2182    4.9830   10.4654    -0.0000   -0.0000    0.0000
     atom=  68, XYZ(ang) Fxyz(a.u.)=  -2.4521    7.1208   10.4434     0.0000   -0.0000   -0.0000
     atom=  69, XYZ(ang) Fxyz(a.u.)=  -3.6875    9.2555   10.3953     0.0000   -0.0000   -0.0000
     atom=  70, XYZ(ang) Fxyz(a.u.)=  -4.9230   11.3916   10.3660     0.0000   -0.0000   -0.0000
     atom=  71, XYZ(ang) Fxyz(a.u.)=  -6.1564   13.5289   10.3638     0.0000   -0.0000   -0.0000
     atom=  72, XYZ(ang) Fxyz(a.u.)=  -7.3897   15.6649   10.3824    -0.0000   -0.0000    0.0000
     atom=  73, XYZ(ang) Fxyz(a.u.)=   3.7126    0.7079   10.4048    -0.0000   -0.0000    0.0000
     atom=  74, XYZ(ang) Fxyz(a.u.)=   2.4800    2.8436   10.4565     0.0000   -0.0000   -0.0000
     atom=  75, XYZ(ang) Fxyz(a.u.)=   1.2463    4.9813   10.5154    -0.0000   -0.0000   -0.0000
     atom=  76, XYZ(ang) Fxyz(a.u.)=   0.0200    7.1233   10.5516     0.0000   -0.0000   -0.0000
     atom=  77, XYZ(ang) Fxyz(a.u.)=  -1.2207    9.2560   10.4705    -0.0000   -0.0000   -0.0000
     atom=  78, XYZ(ang) Fxyz(a.u.)=  -2.4552   11.3928   10.4015     0.0000   -0.0000    0.0000
     atom=  79, XYZ(ang) Fxyz(a.u.)=  -3.6889   13.5283   10.3693     0.0000   -0.0000   -0.0000
     atom=  80, XYZ(ang) Fxyz(a.u.)=  -4.9233   15.6648   10.3730    -0.0000   -0.0000    0.0000
     atom=  81, XYZ(ang) Fxyz(a.u.)=   6.1799    0.7076   10.4032    -0.0000   -0.0000   -0.0000
     atom=  82, XYZ(ang) Fxyz(a.u.)=   4.9450    2.8437   10.4560     0.0000   -0.0000   -0.0000
     atom=  83, XYZ(ang) Fxyz(a.u.)=   3.7123    4.9801   10.5455     0.0000    0.0000   -0.0000
     atom=  84, XYZ(ang) Fxyz(a.u.)=   2.4857    7.1163   10.6738     0.0000    0.0000   -0.0000
     atom=  85, XYZ(ang) Fxyz(a.u.)=   1.2479    9.2636   10.6409    -0.0000    0.0000   -0.0000
     atom=  86, XYZ(ang) Fxyz(a.u.)=   0.0116   11.3921   10.4910     0.0000   -0.0000    0.0000
     atom=  87, XYZ(ang) Fxyz(a.u.)=  -1.2228   13.5279   10.4131    -0.0000   -0.0000   -0.0000
     atom=  88, XYZ(ang) Fxyz(a.u.)=  -2.4557   15.6654   10.3874     0.0000   -0.0000   -0.0000
     atom=  89, XYZ(ang) Fxyz(a.u.)=   8.6464    0.7077   10.4123     0.0000   -0.0000   -0.0000
     atom=  90, XYZ(ang) Fxyz(a.u.)=   7.4120    2.8455   10.4440    -0.0000   -0.0000   -0.0000
     atom=  91, XYZ(ang) Fxyz(a.u.)=   6.1781    4.9815   10.5222     0.0000   -0.0000    0.0000
     atom=  92, XYZ(ang) Fxyz(a.u.)=   4.9366    7.1171   10.6783     0.0000    0.0000   -0.0000
     atom=  93, XYZ(ang) Fxyz(a.u.)=   3.7072    9.2618   11.1613    -0.0000    0.0000    0.0000
     atom=  94, XYZ(ang) Fxyz(a.u.)=   2.4727   11.3857   10.6439    -0.0000   -0.0000   -0.0000
     atom=  95, XYZ(ang) Fxyz(a.u.)=   1.2448   13.5276   10.4885    -0.0000   -0.0000    0.0000
     atom=  96, XYZ(ang) Fxyz(a.u.)=   0.0118   15.6638   10.4250     0.0000   -0.0000   -0.0000
     atom=  97, XYZ(ang) Fxyz(a.u.)=  11.1143    0.7074   10.4290     0.0000   -0.0000    0.0000
     atom=  98, XYZ(ang) Fxyz(a.u.)=   9.8799    2.8451   10.4306     0.0000   -0.0000    0.0000
     atom=  99, XYZ(ang) Fxyz(a.u.)=   8.6433    4.9830   10.4768     0.0000   -0.0000    0.0000
     atom= 100, XYZ(ang) Fxyz(a.u.)=   7.4050    7.1232   10.5702     0.0000   -0.0000   -0.0000
     atom= 101, XYZ(ang) Fxyz(a.u.)=   6.1767    9.2643   10.6648    -0.0000   -0.0000    0.0000
     atom= 102, XYZ(ang) Fxyz(a.u.)=   4.9522   11.3873   10.6632    -0.0000   -0.0000    0.0000
     atom= 103, XYZ(ang) Fxyz(a.u.)=   3.7125   13.5191   10.5639     0.0000   -0.0000    0.0000
     atom= 104, XYZ(ang) Fxyz(a.u.)=   2.4784   15.6614   10.4718     0.0000   -0.0000   -0.0000
     atom= 105, XYZ(ang) Fxyz(a.u.)=  13.5817    0.7052   10.4430    -0.0000   -0.0000    0.0000
     atom= 106, XYZ(ang) Fxyz(a.u.)=  12.3475    2.8445   10.4228    -0.0000   -0.0000    0.0000
     atom= 107, XYZ(ang) Fxyz(a.u.)=  11.1116    4.9831   10.4310     0.0000   -0.0000    0.0000
     atom= 108, XYZ(ang) Fxyz(a.u.)=   9.8774    7.1208   10.4645     0.0000   -0.0000    0.0000
     atom= 109, XYZ(ang) Fxyz(a.u.)=   8.6463    9.2565   10.5037    -0.0000   -0.0000   -0.0000
     atom= 110, XYZ(ang) Fxyz(a.u.)=   7.4147   11.3928   10.5298    -0.0000   -0.0000    0.0000
     atom= 111, XYZ(ang) Fxyz(a.u.)=   6.1808   13.5282   10.5151     0.0000   -0.0000    0.0000
     atom= 112, XYZ(ang) Fxyz(a.u.)=   4.9469   15.6617   10.4816     0.0000    0.0000   -0.0000
     atom= 113, XYZ(ang) Fxyz(a.u.)=  16.0492    0.7075   10.4375    -0.0000    0.0000   -0.0000
     atom= 114, XYZ(ang) Fxyz(a.u.)=  14.8159    2.8445   10.4221    -0.0000   -0.0000   -0.0000
     atom= 115, XYZ(ang) Fxyz(a.u.)=  13.5817    4.9822   10.4091    -0.0000    0.0000   -0.0000
     atom= 116, XYZ(ang) Fxyz(a.u.)=  12.3473    7.1187   10.4065    -0.0000   -0.0000   -0.0000
     atom= 117, XYZ(ang) Fxyz(a.u.)=  11.1129    9.2557   10.4176    -0.0000   -0.0000   -0.0000
     atom= 118, XYZ(ang) Fxyz(a.u.)=   9.8810   11.3932   10.4351    -0.0000   -0.0000   -0.0000
     atom= 119, XYZ(ang) Fxyz(a.u.)=   8.6487   13.5284   10.4475     0.0000    0.0000   -0.0000
     atom= 120, XYZ(ang) Fxyz(a.u.)=   7.4137   15.6641   10.4481     0.0000   -0.0000   -0.0000
     atom= 121, XYZ(ang) Fxyz(a.u.)=  18.5171    0.7077   10.4248    -0.0000   -0.0000   -0.0000
     atom= 122, XYZ(ang) Fxyz(a.u.)=  17.2834    2.8451   10.4300    -0.0000   -0.0000    0.0000
     atom= 123, XYZ(ang) Fxyz(a.u.)=  16.0517    4.9831   10.4216    -0.0000   -0.0000   -0.0000
     atom= 124, XYZ(ang) Fxyz(a.u.)=  14.8161    7.1187   10.3975     0.0000   -0.0000    0.0000
     atom= 125, XYZ(ang) Fxyz(a.u.)=  13.5817    9.2557   10.3801     0.0000   -0.0000   -0.0000
     atom= 126, XYZ(ang) Fxyz(a.u.)=  12.3484   11.3917   10.3795     0.0000   -0.0000    0.0000
     atom= 127, XYZ(ang) Fxyz(a.u.)=  11.1145   13.5285   10.3926     0.0000   -0.0000   -0.0000
     atom= 128, XYZ(ang) Fxyz(a.u.)=   9.8812   15.6656   10.4101     0.0000    0.0000    0.0000
     atom= 129, XYZ(ang) Fxyz(a.u.)=   3.6263    9.3334   12.6610     0.0000    0.0000   -0.0000
     atom= 130, XYZ(ang) Fxyz(a.u.)=   4.3813    8.8281   13.0153     0.0000    0.0000   -0.0000
     atom= 131, XYZ(ang) Fxyz(a.u.)=   4.9747    8.4946   16.3082     0.0000   -0.0000    0.0000
     atom= 132, XYZ(ang) Fxyz(a.u.)=   4.9901    8.3948   15.1291     0.0000   -0.0000    0.0000
     atom= 133, XYZ(ang) Fxyz(a.u.)=   4.9647    8.5894   17.4925    -0.0000   -0.0000    0.0001

outputting data on grids to files...


***********************************************************
***********************************************************
               Computational Time (second)                 
***********************************************************
***********************************************************

                               Min_ID   Min_Time       Max_ID   Max_Time
   Total Computational Time =    28    14144.559          0    14144.720
   readfile                 =    44        2.667         12        2.672
   truncation               =    39       43.782         15       47.844
   MD_pac                   =     0        2.451         20        2.624
   OutData                  =    50        0.697          0        0.846
   DFT                      =    15    14090.628         39    14094.690

*** In DFT ***

   Set_OLP_Kin              =    39       36.872         15       79.037
   Set_Nonlocal             =    15      110.283         39      152.362
   Set_ProExpn_VNA          =    39      206.583         31      237.373
   Set_Hamiltonian          =    36      781.790          7      781.803
   Poisson                  =    52        9.453          2        9.458
   Diagonalization          =     0    12166.039         40    12166.059
   Mixing_DM                =    36       83.888          4       83.895
   Force                    =    52      188.698          1      188.699
   Total_Energy             =     1       61.287          0       61.301
   Set_Aden_Grid            =    31        3.578         39       34.383
   Set_Orbitals_Grid        =    39       17.749         15       37.380
   Set_Density_Grid         =    50      298.993          8      310.619
   RestartFileDFT           =    26        4.661         14       16.336
   Mulliken_Charge          =    51        0.634         20        0.634
   FFT(2D)_Density          =     6       10.214         38       10.221
   Others                   =    15        7.880         51       29.504

The calculation was normally finished.
