
The number of threads in each node for OpenMP parallelization is 1.


*******************************************************
*******************************************************
 Welcome to OpenMX   Ver. 3.9.9                           
 Copyright (C), 2002-2019, T. Ozaki                    
 OpenMX comes with ABSOLUTELY NO WARRANTY.             
 This is free software, and you are welcome to         
 redistribute it under the constitution of the GNU-GPL.
*******************************************************
*******************************************************

Automatic determination of Kerker_factor:   3.992945286074


<Input_std>  Your input file was normally read.
<Input_std>  The system includes 3 species and 135 atoms.

*******************************************************
                     PAO and VPS                       
*******************************************************

<SetPara_DFT>  PAOs of species H were normally found.
<SetPara_DFT>  PAOs of species C were normally found.
<SetPara_DFT>  PAOs of species O were normally found.
<SetPara_DFT>  VPSs of species H were normally found.
               H_PBE19.vps is j-dependent.
               In case of scf.SpinOrbit.Coupling=off,
               j-dependent pseudo potentials are averaged by j-degeneracy,
               which corresponds to a scalar relativistic treatment.
<SetPara_DFT>  VPSs of species C were normally found.
               C_PBE19.vps is j-dependent.
               In case of scf.SpinOrbit.Coupling=off,
               j-dependent pseudo potentials are averaged by j-degeneracy,
               which corresponds to a scalar relativistic treatment.
<SetPara_DFT>  VPSs of species O were normally found.
               O_PBE19.vps is j-dependent.
               In case of scf.SpinOrbit.Coupling=off,
               j-dependent pseudo potentials are averaged by j-degeneracy,
               which corresponds to a scalar relativistic treatment.

*******************************************************
     Fourier transform of PAO and projectors of VNL    
*******************************************************

<FT_PAO>          Fourier transform of pseudo atomic orbitals
<FT_NLP>          Fourier transform of non-local projectors
<FT_ProExpn_VNA>  Fourier transform of VNA separable projectors
<FT_VNA>          Fourier transform of VNA potentials
<FT_ProductPAO>   Fourier transform of product of PAOs

*******************************************************
  Allocation of atoms to processors at MD_iter=    1     
*******************************************************

 proc =   0  # of atoms=   2  estimated weight=         2.00000
 proc =   1  # of atoms=   2  estimated weight=         2.00000
 proc =   2  # of atoms=   2  estimated weight=         2.00000
 proc =   3  # of atoms=   2  estimated weight=         2.00000
 proc =   4  # of atoms=   2  estimated weight=         2.00000
 proc =   5  # of atoms=   2  estimated weight=         2.00000
 proc =   6  # of atoms=   2  estimated weight=         2.00000
 proc =   7  # of atoms=   2  estimated weight=         2.00000
 proc =   8  # of atoms=   2  estimated weight=         2.00000
 proc =   9  # of atoms=   2  estimated weight=         2.00000
 proc =  10  # of atoms=   2  estimated weight=         2.00000
 proc =  11  # of atoms=   2  estimated weight=         2.00000
 proc =  12  # of atoms=   2  estimated weight=         2.00000
 proc =  13  # of atoms=   2  estimated weight=         2.00000
 proc =  14  # of atoms=   2  estimated weight=         2.00000
 proc =  15  # of atoms=   3  estimated weight=         3.00000
 proc =  16  # of atoms=   2  estimated weight=         2.00000
 proc =  17  # of atoms=   2  estimated weight=         2.00000
 proc =  18  # of atoms=   2  estimated weight=         2.00000
 proc =  19  # of atoms=   2  estimated weight=         2.00000
 proc =  20  # of atoms=   2  estimated weight=         2.00000
 proc =  21  # of atoms=   2  estimated weight=         2.00000
 proc =  22  # of atoms=   2  estimated weight=         2.00000
 proc =  23  # of atoms=   3  estimated weight=         3.00000
 proc =  24  # of atoms=   2  estimated weight=         2.00000
 proc =  25  # of atoms=   2  estimated weight=         2.00000
 proc =  26  # of atoms=   2  estimated weight=         2.00000
 proc =  27  # of atoms=   2  estimated weight=         2.00000
 proc =  28  # of atoms=   2  estimated weight=         2.00000
 proc =  29  # of atoms=   2  estimated weight=         2.00000
 proc =  30  # of atoms=   2  estimated weight=         2.00000
 proc =  31  # of atoms=   3  estimated weight=         3.00000
 proc =  32  # of atoms=   2  estimated weight=         2.00000
 proc =  33  # of atoms=   2  estimated weight=         2.00000
 proc =  34  # of atoms=   2  estimated weight=         2.00000
 proc =  35  # of atoms=   2  estimated weight=         2.00000
 proc =  36  # of atoms=   2  estimated weight=         2.00000
 proc =  37  # of atoms=   2  estimated weight=         2.00000
 proc =  38  # of atoms=   2  estimated weight=         2.00000
 proc =  39  # of atoms=   3  estimated weight=         3.00000
 proc =  40  # of atoms=   2  estimated weight=         2.00000
 proc =  41  # of atoms=   2  estimated weight=         2.00000
 proc =  42  # of atoms=   2  estimated weight=         2.00000
 proc =  43  # of atoms=   2  estimated weight=         2.00000
 proc =  44  # of atoms=   2  estimated weight=         2.00000
 proc =  45  # of atoms=   2  estimated weight=         2.00000
 proc =  46  # of atoms=   2  estimated weight=         2.00000
 proc =  47  # of atoms=   3  estimated weight=         3.00000
 proc =  48  # of atoms=   2  estimated weight=         2.00000
 proc =  49  # of atoms=   2  estimated weight=         2.00000
 proc =  50  # of atoms=   2  estimated weight=         2.00000
 proc =  51  # of atoms=   2  estimated weight=         2.00000
 proc =  52  # of atoms=   2  estimated weight=         2.00000
 proc =  53  # of atoms=   2  estimated weight=         2.00000
 proc =  54  # of atoms=   2  estimated weight=         2.00000
 proc =  55  # of atoms=   3  estimated weight=         3.00000
 proc =  56  # of atoms=   2  estimated weight=         2.00000
 proc =  57  # of atoms=   2  estimated weight=         2.00000
 proc =  58  # of atoms=   2  estimated weight=         2.00000
 proc =  59  # of atoms=   2  estimated weight=         2.00000
 proc =  60  # of atoms=   2  estimated weight=         2.00000
 proc =  61  # of atoms=   2  estimated weight=         2.00000
 proc =  62  # of atoms=   2  estimated weight=         2.00000
 proc =  63  # of atoms=   3  estimated weight=         3.00000




*******************************************************
        Analysis of neighbors and setting of grids        
*******************************************************

TFNAN=    6170   Average FNAN=  45.70370
TSNAN=       0   Average SNAN=   0.00000
<truncation> CpyCell= 1 ct_AN=   1 FNAN SNAN  45   0
<truncation> CpyCell= 1 ct_AN=   2 FNAN SNAN  45   0
<truncation> CpyCell= 1 ct_AN=   3 FNAN SNAN  45   0
<truncation> CpyCell= 1 ct_AN=   4 FNAN SNAN  45   0
<truncation> CpyCell= 1 ct_AN=   5 FNAN SNAN  45   0
<truncation> CpyCell= 1 ct_AN=   6 FNAN SNAN  45   0
<truncation> CpyCell= 1 ct_AN=   7 FNAN SNAN  45   0
<truncation> CpyCell= 1 ct_AN=   8 FNAN SNAN  45   0
<truncation> CpyCell= 1 ct_AN=   9 FNAN SNAN  45   0
<truncation> CpyCell= 1 ct_AN=  10 FNAN SNAN  46   0
<truncation> CpyCell= 1 ct_AN=  11 FNAN SNAN  47   0
<truncation> CpyCell= 1 ct_AN=  12 FNAN SNAN  47   0
<truncation> CpyCell= 1 ct_AN=  13 FNAN SNAN  45   0
<truncation> CpyCell= 1 ct_AN=  14 FNAN SNAN  45   0
<truncation> CpyCell= 1 ct_AN=  15 FNAN SNAN  45   0
<truncation> CpyCell= 1 ct_AN=  16 FNAN SNAN  45   0
<truncation> CpyCell= 1 ct_AN=  17 FNAN SNAN  45   0
<truncation> CpyCell= 1 ct_AN=  18 FNAN SNAN  47   0
<truncation> CpyCell= 1 ct_AN=  19 FNAN SNAN  50   0
<truncation> CpyCell= 1 ct_AN=  20 FNAN SNAN  50   0
     ..........
     ......

TFNAN=    6170   Average FNAN=  45.70370
TSNAN=       0   Average SNAN=   0.00000
<truncation> CpyCell= 2 ct_AN=   1 FNAN SNAN  45   0
<truncation> CpyCell= 2 ct_AN=   2 FNAN SNAN  45   0
<truncation> CpyCell= 2 ct_AN=   3 FNAN SNAN  45   0
<truncation> CpyCell= 2 ct_AN=   4 FNAN SNAN  45   0
<truncation> CpyCell= 2 ct_AN=   5 FNAN SNAN  45   0
<truncation> CpyCell= 2 ct_AN=   6 FNAN SNAN  45   0
<truncation> CpyCell= 2 ct_AN=   7 FNAN SNAN  45   0
<truncation> CpyCell= 2 ct_AN=   8 FNAN SNAN  45   0
<truncation> CpyCell= 2 ct_AN=   9 FNAN SNAN  45   0
<truncation> CpyCell= 2 ct_AN=  10 FNAN SNAN  46   0
<truncation> CpyCell= 2 ct_AN=  11 FNAN SNAN  47   0
<truncation> CpyCell= 2 ct_AN=  12 FNAN SNAN  47   0
<truncation> CpyCell= 2 ct_AN=  13 FNAN SNAN  45   0
<truncation> CpyCell= 2 ct_AN=  14 FNAN SNAN  45   0
<truncation> CpyCell= 2 ct_AN=  15 FNAN SNAN  45   0
<truncation> CpyCell= 2 ct_AN=  16 FNAN SNAN  45   0
<truncation> CpyCell= 2 ct_AN=  17 FNAN SNAN  45   0
<truncation> CpyCell= 2 ct_AN=  18 FNAN SNAN  47   0
<truncation> CpyCell= 2 ct_AN=  19 FNAN SNAN  50   0
<truncation> CpyCell= 2 ct_AN=  20 FNAN SNAN  50   0
     ..........
     ......

TFNAN=    6170   Average FNAN=  45.70370
TSNAN=       0   Average SNAN=   0.00000
<truncation> CpyCell= 2 ct_AN=   1 FNAN SNAN  45   0
<truncation> CpyCell= 2 ct_AN=   2 FNAN SNAN  45   0
<truncation> CpyCell= 2 ct_AN=   3 FNAN SNAN  45   0
<truncation> CpyCell= 2 ct_AN=   4 FNAN SNAN  45   0
<truncation> CpyCell= 2 ct_AN=   5 FNAN SNAN  45   0
<truncation> CpyCell= 2 ct_AN=   6 FNAN SNAN  45   0
<truncation> CpyCell= 2 ct_AN=   7 FNAN SNAN  45   0
<truncation> CpyCell= 2 ct_AN=   8 FNAN SNAN  45   0
<truncation> CpyCell= 2 ct_AN=   9 FNAN SNAN  45   0
<truncation> CpyCell= 2 ct_AN=  10 FNAN SNAN  46   0
<truncation> CpyCell= 2 ct_AN=  11 FNAN SNAN  47   0
<truncation> CpyCell= 2 ct_AN=  12 FNAN SNAN  47   0
<truncation> CpyCell= 2 ct_AN=  13 FNAN SNAN  45   0
<truncation> CpyCell= 2 ct_AN=  14 FNAN SNAN  45   0
<truncation> CpyCell= 2 ct_AN=  15 FNAN SNAN  45   0
<truncation> CpyCell= 2 ct_AN=  16 FNAN SNAN  45   0
<truncation> CpyCell= 2 ct_AN=  17 FNAN SNAN  45   0
<truncation> CpyCell= 2 ct_AN=  18 FNAN SNAN  47   0
<truncation> CpyCell= 2 ct_AN=  19 FNAN SNAN  50   0
<truncation> CpyCell= 2 ct_AN=  20 FNAN SNAN  50   0
     ..........
     ......

<Check_System> The system is slab.
lattice vectors (bohr)
A  = 37.299978480367,  0.000000000000,  0.000000000000
B  = -18.649989240184, 32.302728872609,  0.000000000000
C  =  0.000000000000,  0.000000000000, 39.684245760157
reciprocal lattice vectors (bohr^-1)
RA =  0.168450105420,  0.097254713866, -0.000000000000
RB =  0.000000000000,  0.194509427732,  0.000000000000
RC =  0.000000000000, -0.000000000000,  0.158329462658
Grid_Origin  0.051802765267  0.089739398033  0.350669984638
Cell_Volume =  47815.194201431834 (Bohr^3)
GridVol     =      0.006832303698 (Bohr^3)
Grid_Origin  0.051802765267  0.089739398033  0.350669984638
Cell_Volume =  47815.194201431834 (Bohr^3)
GridVol     =      0.006832303698 (Bohr^3)
<UCell_Box> Info. of cutoff energy and num. of grids
lattice vectors (bohr)
A  = 37.299978480367,  0.000000000000,  0.000000000000
B  = -18.649989240184, 32.302728872609,  0.000000000000
C  =  0.000000000000,  0.000000000000, 39.684245760157
reciprocal lattice vectors (bohr^-1)
RA =  0.168450105420,  0.097254713866, -0.000000000000
RB =  0.000000000000,  0.194509427732,  0.000000000000
RC =  0.000000000000, -0.000000000000,  0.158329462658
Required cutoff energy (Ryd) for 3D-grids = 300.0000
    Used cutoff energy (Ryd) for 3D-grids = 306.4547, 306.4547, 292.3957
Num. of grids of a-, b-, and c-axes = 180, 180, 216
Grid_Origin  0.051802765267  0.089739398033  0.350669984638
Cell_Volume =  47815.194201431834 (Bohr^3)
GridVol     =      0.006832303698 (Bohr^3)
Cell vectors (bohr) of the grid cell (gtv)
  gtv_a =  0.207222102669,  0.000000000000,  0.000000000000
  gtv_b = -0.103611051334,  0.179459604848,  0.000000000000
  gtv_c =  0.000000000000,  0.000000000000,  0.183723360001
  |gtv_a| =  0.207222102669
  |gtv_b| =  0.207222102419
  |gtv_c| =  0.183723360001
Num. of grids overlapping with atom    1 = 132441
Num. of grids overlapping with atom    2 = 132418
Num. of grids overlapping with atom    3 = 132442
Num. of grids overlapping with atom    4 = 132405
Num. of grids overlapping with atom    5 = 132424
Num. of grids overlapping with atom    6 = 132413
Num. of grids overlapping with atom    7 = 132483
Num. of grids overlapping with atom    8 = 132436
Num. of grids overlapping with atom    9 = 132417
Num. of grids overlapping with atom   10 = 132444
Num. of grids overlapping with atom   11 = 132392
Num. of grids overlapping with atom   12 = 132467
Num. of grids overlapping with atom   13 = 132434
Num. of grids overlapping with atom   14 = 132445
Num. of grids overlapping with atom   15 = 132402
Num. of grids overlapping with atom   16 = 132444
Num. of grids overlapping with atom   17 = 132426
Num. of grids overlapping with atom   18 = 132424
Num. of grids overlapping with atom   19 = 132430
Num. of grids overlapping with atom   20 = 132426
     ..........
     ......


*******************************************************
             SCF calculation at MD = 1                
*******************************************************

<MD= 1>  Calculation of the overlap matrix
<MD= 1>  Calculation of the nonlocal matrix
<MD= 1>  Calculation of the VNA projector matrix

******************* MD= 1  SCF= 1 *******************
<Band>  Solving the eigenvalue problem...
 KGrids1:  -0.43750  -0.31250  -0.18750  -0.06250   0.06250   0.18750   0.31250   0.43750 
 KGrids2:  -0.43750  -0.31250  -0.18750  -0.06250   0.06250   0.18750   0.31250   0.43750 
 KGrids3:   0.00000 
<Band_DFT>  Eigen, time=25.334505
<Band_DFT>  DM, time=0.000008
    1    C  MulP   1.9991  1.9991 sum   3.9982
    2    C  MulP   1.9992  1.9992 sum   3.9984
    3    C  MulP   2.0006  2.0006 sum   4.0012
    4    C  MulP   1.9991  1.9991 sum   3.9983
    5    C  MulP   1.9991  1.9991 sum   3.9983
    6    C  MulP   1.9992  1.9992 sum   3.9985
    7    C  MulP   1.9992  1.9992 sum   3.9983
    8    C  MulP   1.9992  1.9992 sum   3.9984
    9    C  MulP   1.9993  1.9993 sum   3.9987
   10    C  MulP   1.9989  1.9989 sum   3.9978
   11    C  MulP   2.0010  2.0010 sum   4.0020
   12    C  MulP   2.0007  2.0007 sum   4.0014
   13    C  MulP   1.9991  1.9991 sum   3.9982
   14    C  MulP   1.9992  1.9992 sum   3.9984
   15    C  MulP   1.9993  1.9993 sum   3.9986
   16    C  MulP   1.9992  1.9992 sum   3.9984
   17    C  MulP   1.9991  1.9991 sum   3.9981
   18    C  MulP   1.9988  1.9988 sum   3.9976
   19    C  MulP   1.9984  1.9984 sum   3.9967
   20    C  MulP   2.0002  2.0002 sum   4.0004
     ..........
     ......

 Sum of MulP: up   =   272.50000 down          =   272.50000
              total=   545.00000 ideal(neutral)=   545.00000
<DFT>  Total Spin Moment (muB) =  0.000000000000
<DFT>  Mixing_weight= 0.050000000000
<DFT>  Uele   = -226.710170762336  dUele     =   1.000000000000
<DFT>  NormRD =    1.000000000000  Criterion =   0.000000010000

******************* MD= 1  SCF= 2 *******************
<Poisson>  Poisson's equation using FFT...
<Set_Hamiltonian>  Hamiltonian matrix for VNA+dVH+Vxc...
<Band>  Solving the eigenvalue problem...
 KGrids1:  -0.43750  -0.31250  -0.18750  -0.06250   0.06250   0.18750   0.31250   0.43750 
 KGrids2:  -0.43750  -0.31250  -0.18750  -0.06250   0.06250   0.18750   0.31250   0.43750 
 KGrids3:   0.00000 
<Band_DFT>  Eigen, time=14.694135
<Band_DFT>  DM, time=0.000000
    1    C  MulP   1.9991  1.9991 sum   3.9982
    2    C  MulP   1.9992  1.9992 sum   3.9984
    3    C  MulP   2.0006  2.0006 sum   4.0012
    4    C  MulP   1.9991  1.9991 sum   3.9983
    5    C  MulP   1.9991  1.9991 sum   3.9983
    6    C  MulP   1.9992  1.9992 sum   3.9985
    7    C  MulP   1.9992  1.9992 sum   3.9983
    8    C  MulP   1.9992  1.9992 sum   3.9984
    9    C  MulP   1.9993  1.9993 sum   3.9987
   10    C  MulP   1.9989  1.9989 sum   3.9978
   11    C  MulP   2.0010  2.0010 sum   4.0020
   12    C  MulP   2.0007  2.0007 sum   4.0014
   13    C  MulP   1.9991  1.9991 sum   3.9982
   14    C  MulP   1.9992  1.9992 sum   3.9984
   15    C  MulP   1.9993  1.9993 sum   3.9986
   16    C  MulP   1.9992  1.9992 sum   3.9984
   17    C  MulP   1.9991  1.9991 sum   3.9981
   18    C  MulP   1.9988  1.9988 sum   3.9976
   19    C  MulP   1.9984  1.9984 sum   3.9967
   20    C  MulP   2.0002  2.0002 sum   4.0004
     ..........
     ......

 Sum of MulP: up   =   272.50000 down          =   272.50000
              total=   545.00000 ideal(neutral)=   545.00000
<DFT>  Total Spin Moment (muB) =  0.000000000000
<DFT>  Mixing_weight= 0.010000000000
<DFT>  Uele   = -226.710170762336  dUele     =   0.000000000000
<DFT>  NormRD =   10.747007297728  Criterion =   0.000000010000

******************* MD= 1  SCF= 3 *******************
<Poisson>  Poisson's equation using FFT...
<Set_Hamiltonian>  Hamiltonian matrix for VNA+dVH+Vxc...
<Band>  Solving the eigenvalue problem...
 KGrids1:  -0.43750  -0.31250  -0.18750  -0.06250   0.06250   0.18750   0.31250   0.43750 
 KGrids2:  -0.43750  -0.31250  -0.18750  -0.06250   0.06250   0.18750   0.31250   0.43750 
 KGrids3:   0.00000 
<Band_DFT>  Eigen, time=14.655134
<Band_DFT>  DM, time=0.000000
    1    C  MulP   1.9991  1.9991 sum   3.9982
    2    C  MulP   1.9992  1.9992 sum   3.9984
    3    C  MulP   2.0006  2.0006 sum   4.0012
    4    C  MulP   1.9991  1.9991 sum   3.9982
    5    C  MulP   1.9991  1.9991 sum   3.9983
    6    C  MulP   1.9992  1.9992 sum   3.9984
    7    C  MulP   1.9991  1.9991 sum   3.9983
    8    C  MulP   1.9992  1.9992 sum   3.9984
    9    C  MulP   1.9993  1.9993 sum   3.9986
   10    C  MulP   1.9989  1.9989 sum   3.9977
   11    C  MulP   2.0010  2.0010 sum   4.0019
   12    C  MulP   2.0007  2.0007 sum   4.0014
   13    C  MulP   1.9991  1.9991 sum   3.9981
   14    C  MulP   1.9992  1.9992 sum   3.9984
   15    C  MulP   1.9993  1.9993 sum   3.9985
   16    C  MulP   1.9992  1.9992 sum   3.9983
   17    C  MulP   1.9990  1.9990 sum   3.9981
   18    C  MulP   1.9988  1.9988 sum   3.9975
   19    C  MulP   1.9983  1.9983 sum   3.9966
   20    C  MulP   2.0003  2.0003 sum   4.0006
     ..........
     ......

 Sum of MulP: up   =   272.50000 down          =   272.50000
              total=   545.00000 ideal(neutral)=   545.00000
<DFT>  Total Spin Moment (muB) =  0.000000000000
<DFT>  Mixing_weight= 0.300000000000
<DFT>  Uele   = -227.075010181493  dUele     =   0.364839419157
<DFT>  NormRD =   10.604792712583  Criterion =   0.000000010000

******************* MD= 1  SCF= 4 *******************
<Poisson>  Poisson's equation using FFT...
<Set_Hamiltonian>  Hamiltonian matrix for VNA+dVH+Vxc...
<Band>  Solving the eigenvalue problem...
 KGrids1:  -0.43750  -0.31250  -0.18750  -0.06250   0.06250   0.18750   0.31250   0.43750 
 KGrids2:  -0.43750  -0.31250  -0.18750  -0.06250   0.06250   0.18750   0.31250   0.43750 
 KGrids3:   0.00000 
<Band_DFT>  Eigen, time=14.687625
<Band_DFT>  DM, time=0.000000
    1    C  MulP   1.9988  1.9988 sum   3.9975
    2    C  MulP   1.9988  1.9988 sum   3.9976
    3    C  MulP   1.9999  1.9999 sum   3.9998
    4    C  MulP   1.9986  1.9986 sum   3.9973
    5    C  MulP   1.9990  1.9990 sum   3.9979
    6    C  MulP   1.9988  1.9988 sum   3.9975
    7    C  MulP   1.9987  1.9987 sum   3.9974
    8    C  MulP   1.9988  1.9988 sum   3.9976
    9    C  MulP   1.9989  1.9989 sum   3.9978
   10    C  MulP   1.9984  1.9984 sum   3.9969
   11    C  MulP   2.0001  2.0001 sum   4.0001
   12    C  MulP   2.0002  2.0002 sum   4.0005
   13    C  MulP   1.9986  1.9986 sum   3.9973
   14    C  MulP   1.9988  1.9988 sum   3.9977
   15    C  MulP   1.9990  1.9990 sum   3.9980
   16    C  MulP   1.9987  1.9987 sum   3.9974
   17    C  MulP   1.9988  1.9988 sum   3.9975
   18    C  MulP   1.9985  1.9985 sum   3.9970
   19    C  MulP   1.9962  1.9962 sum   3.9925
   20    C  MulP   2.0029  2.0029 sum   4.0058
     ..........
     ......

 Sum of MulP: up   =   272.50000 down          =   272.50000
              total=   545.00000 ideal(neutral)=   545.00000
<DFT>  Total Spin Moment (muB) =  0.000000000000
<DFT>  Mixing_weight= 0.300000000000
<DFT>  Uele   = -237.979631123075  dUele     =  10.904620941582
<DFT>  NormRD =    6.627305228873  Criterion =   0.000000010000

******************* MD= 1  SCF= 5 *******************
<Poisson>  Poisson's equation using FFT...
<Set_Hamiltonian>  Hamiltonian matrix for VNA+dVH+Vxc...
<Band>  Solving the eigenvalue problem...
 KGrids1:  -0.43750  -0.31250  -0.18750  -0.06250   0.06250   0.18750   0.31250   0.43750 
 KGrids2:  -0.43750  -0.31250  -0.18750  -0.06250   0.06250   0.18750   0.31250   0.43750 
 KGrids3:   0.00000 
<Band_DFT>  Eigen, time=14.637682
<Band_DFT>  DM, time=0.000000
    1    C  MulP   1.9995  1.9995 sum   3.9990
    2    C  MulP   1.9995  1.9995 sum   3.9991
    3    C  MulP   1.9999  1.9999 sum   3.9998
    4    C  MulP   1.9995  1.9995 sum   3.9990
    5    C  MulP   1.9995  1.9995 sum   3.9990
    6    C  MulP   1.9996  1.9996 sum   3.9992
    7    C  MulP   1.9995  1.9995 sum   3.9989
    8    C  MulP   1.9996  1.9996 sum   3.9991
    9    C  MulP   1.9996  1.9996 sum   3.9992
   10    C  MulP   1.9993  1.9993 sum   3.9986
   11    C  MulP   1.9998  1.9998 sum   3.9995
   12    C  MulP   1.9995  1.9995 sum   3.9991
   13    C  MulP   1.9996  1.9996 sum   3.9992
   14    C  MulP   1.9996  1.9996 sum   3.9991
   15    C  MulP   1.9996  1.9996 sum   3.9992
   16    C  MulP   1.9995  1.9995 sum   3.9990
   17    C  MulP   1.9994  1.9994 sum   3.9988
   18    C  MulP   1.9991  1.9991 sum   3.9982
   19    C  MulP   1.9974  1.9974 sum   3.9948
   20    C  MulP   1.9964  1.9964 sum   3.9929
     ..........
     ......

 Sum of MulP: up   =   272.50000 down          =   272.50000
              total=   545.00000 ideal(neutral)=   545.00000
<DFT>  Total Spin Moment (muB) =  0.000000000000
<DFT>  Mixing_weight= 0.300000000000
<DFT>  Uele   = -245.427606269713  dUele     =   7.447975146638
<DFT>  NormRD =    4.467631379633  Criterion =   0.000000010000

******************* MD= 1  SCF= 6 *******************
<Poisson>  Poisson's equation using FFT...
<Set_Hamiltonian>  Hamiltonian matrix for VNA+dVH+Vxc...
<Band>  Solving the eigenvalue problem...
 KGrids1:  -0.43750  -0.31250  -0.18750  -0.06250   0.06250   0.18750   0.31250   0.43750 
 KGrids2:  -0.43750  -0.31250  -0.18750  -0.06250   0.06250   0.18750   0.31250   0.43750 
 KGrids3:   0.00000 
<Band_DFT>  Eigen, time=14.674659
<Band_DFT>  DM, time=0.000000
    1    C  MulP   1.9997  1.9997 sum   3.9995
    2    C  MulP   1.9997  1.9997 sum   3.9994
    3    C  MulP   2.0000  2.0000 sum   4.0000
    4    C  MulP   1.9997  1.9997 sum   3.9994
    5    C  MulP   1.9997  1.9997 sum   3.9995
    6    C  MulP   1.9998  1.9998 sum   3.9997
    7    C  MulP   1.9997  1.9997 sum   3.9994
    8    C  MulP   1.9998  1.9998 sum   3.9996
    9    C  MulP   1.9998  1.9998 sum   3.9997
   10    C  MulP   1.9995  1.9995 sum   3.9990
   11    C  MulP   1.9999  1.9999 sum   3.9999
   12    C  MulP   1.9998  1.9998 sum   3.9995
   13    C  MulP   1.9998  1.9998 sum   3.9996
   14    C  MulP   1.9998  1.9998 sum   3.9996
   15    C  MulP   1.9998  1.9998 sum   3.9997
   16    C  MulP   1.9997  1.9997 sum   3.9994
   17    C  MulP   1.9996  1.9996 sum   3.9992
   18    C  MulP   1.9993  1.9993 sum   3.9986
   19    C  MulP   1.9977  1.9977 sum   3.9954
   20    C  MulP   1.9964  1.9964 sum   3.9928
     ..........
     ......

 Sum of MulP: up   =   272.50000 down          =   272.50000
              total=   545.00000 ideal(neutral)=   545.00000
<DFT>  Total Spin Moment (muB) =  0.000000000000
<DFT>  Mixing_weight= 0.300000000000
<DFT>  Uele   = -250.368741506859  dUele     =   4.941135237146
<DFT>  NormRD =    3.044154307206  Criterion =   0.000000010000

******************* MD= 1  SCF= 7 *******************
<Poisson>  Poisson's equation using FFT...
<Set_Hamiltonian>  Hamiltonian matrix for VNA+dVH+Vxc...
<Band>  Solving the eigenvalue problem...
 KGrids1:  -0.43750  -0.31250  -0.18750  -0.06250   0.06250   0.18750   0.31250   0.43750 
 KGrids2:  -0.43750  -0.31250  -0.18750  -0.06250   0.06250   0.18750   0.31250   0.43750 
 KGrids3:   0.00000 
<Band_DFT>  Eigen, time=14.930745
<Band_DFT>  DM, time=0.000000
    1    C  MulP   1.9998  1.9998 sum   3.9996
    2    C  MulP   1.9997  1.9997 sum   3.9994
    3    C  MulP   2.0001  2.0001 sum   4.0001
    4    C  MulP   1.9997  1.9997 sum   3.9995
    5    C  MulP   1.9998  1.9998 sum   3.9996
    6    C  MulP   1.9999  1.9999 sum   3.9998
    7    C  MulP   1.9998  1.9998 sum   3.9995
    8    C  MulP   1.9999  1.9999 sum   3.9998
    9    C  MulP   1.9999  1.9999 sum   3.9998
   10    C  MulP   1.9996  1.9996 sum   3.9992
   11    C  MulP   2.0000  2.0000 sum   4.0000
   12    C  MulP   1.9999  1.9999 sum   3.9998
   13    C  MulP   1.9999  1.9999 sum   3.9998
   14    C  MulP   1.9998  1.9998 sum   3.9997
   15    C  MulP   1.9999  1.9999 sum   3.9998
   16    C  MulP   1.9998  1.9998 sum   3.9996
   17    C  MulP   1.9997  1.9997 sum   3.9994
   18    C  MulP   1.9994  1.9994 sum   3.9987
   19    C  MulP   1.9977  1.9977 sum   3.9954
   20    C  MulP   1.9966  1.9966 sum   3.9932
     ..........
     ......

 Sum of MulP: up   =   272.50000 down          =   272.50000
              total=   545.00000 ideal(neutral)=   545.00000
<DFT>  Total Spin Moment (muB) =  0.000000000000
<DFT>  Mixing_weight= 0.300000000000
<DFT>  Uele   = -253.663850796948  dUele     =   3.295109290090
<DFT>  NormRD =    2.084348357446  Criterion =   0.000000010000

******************* MD= 1  SCF= 8 *******************
<Poisson>  Poisson's equation using FFT...
<Set_Hamiltonian>  Hamiltonian matrix for VNA+dVH+Vxc...
<Band>  Solving the eigenvalue problem...
 KGrids1:  -0.43750  -0.31250  -0.18750  -0.06250   0.06250   0.18750   0.31250   0.43750 
 KGrids2:  -0.43750  -0.31250  -0.18750  -0.06250   0.06250   0.18750   0.31250   0.43750 
 KGrids3:   0.00000 
<Band_DFT>  Eigen, time=14.657339
<Band_DFT>  DM, time=0.000000
    1    C  MulP   1.9998  1.9998 sum   3.9996
    2    C  MulP   1.9997  1.9997 sum   3.9995
    3    C  MulP   2.0001  2.0001 sum   4.0002
    4    C  MulP   1.9998  1.9998 sum   3.9995
    5    C  MulP   1.9998  1.9998 sum   3.9997
    6    C  MulP   1.9999  1.9999 sum   3.9999
    7    C  MulP   1.9998  1.9998 sum   3.9996
    8    C  MulP   1.9999  1.9999 sum   3.9998
    9    C  MulP   1.9999  1.9999 sum   3.9999
   10    C  MulP   1.9996  1.9996 sum   3.9993
   11    C  MulP   2.0001  2.0001 sum   4.0001
   12    C  MulP   2.0000  2.0000 sum   3.9999
   13    C  MulP   1.9999  1.9999 sum   3.9998
   14    C  MulP   1.9999  1.9999 sum   3.9997
   15    C  MulP   2.0000  2.0000 sum   3.9999
   16    C  MulP   1.9998  1.9998 sum   3.9996
   17    C  MulP   1.9997  1.9997 sum   3.9994
   18    C  MulP   1.9994  1.9994 sum   3.9988
   19    C  MulP   1.9977  1.9977 sum   3.9954
   20    C  MulP   1.9967  1.9967 sum   3.9934
     ..........
     ......

 Sum of MulP: up   =   272.50000 down          =   272.50000
              total=   545.00000 ideal(neutral)=   545.00000
<DFT>  Total Spin Moment (muB) =  0.000000000000
<DFT>  Mixing_weight= 0.300000000000
<DFT>  Uele   = -255.908179087563  dUele     =   2.244328290615
<DFT>  NormRD =    1.433273386043  Criterion =   0.000000010000

******************* MD= 1  SCF= 9 *******************
<Poisson>  Poisson's equation using FFT...
<Set_Hamiltonian>  Hamiltonian matrix for VNA+dVH+Vxc...
<Band>  Solving the eigenvalue problem...
 KGrids1:  -0.43750  -0.31250  -0.18750  -0.06250   0.06250   0.18750   0.31250   0.43750 
 KGrids2:  -0.43750  -0.31250  -0.18750  -0.06250   0.06250   0.18750   0.31250   0.43750 
 KGrids3:   0.00000 
<Band_DFT>  Eigen, time=14.649459
<Band_DFT>  DM, time=0.000000
    1    C  MulP   1.9998  1.9998 sum   3.9997
    2    C  MulP   1.9998  1.9998 sum   3.9995
    3    C  MulP   2.0001  2.0001 sum   4.0002
    4    C  MulP   1.9998  1.9998 sum   3.9995
    5    C  MulP   1.9999  1.9999 sum   3.9997
    6    C  MulP   1.9999  1.9999 sum   3.9999
    7    C  MulP   1.9998  1.9998 sum   3.9996
    8    C  MulP   1.9999  1.9999 sum   3.9998
    9    C  MulP   2.0000  2.0000 sum   3.9999
   10    C  MulP   1.9996  1.9996 sum   3.9993
   11    C  MulP   2.0001  2.0001 sum   4.0002
   12    C  MulP   2.0000  2.0000 sum   4.0000
   13    C  MulP   1.9999  1.9999 sum   3.9999
   14    C  MulP   1.9999  1.9999 sum   3.9998
   15    C  MulP   2.0000  2.0000 sum   3.9999
   16    C  MulP   1.9998  1.9998 sum   3.9996
   17    C  MulP   1.9997  1.9997 sum   3.9995
   18    C  MulP   1.9994  1.9994 sum   3.9989
   19    C  MulP   1.9977  1.9977 sum   3.9954
   20    C  MulP   1.9968  1.9968 sum   3.9935
     ..........
     ......

 Sum of MulP: up   =   272.50000 down          =   272.50000
              total=   545.00000 ideal(neutral)=   545.00000
<DFT>  Total Spin Moment (muB) =  0.000000000000
<DFT>  Mixing_weight= 0.300000000000
<DFT>  Uele   = -257.478284223816  dUele     =   1.570105136253
<DFT>  NormRD =    0.989309384488  Criterion =   0.000000010000

******************* MD= 1  SCF=10 *******************
<Poisson>  Poisson's equation using FFT...
<Set_Hamiltonian>  Hamiltonian matrix for VNA+dVH+Vxc...
<Band>  Solving the eigenvalue problem...
 KGrids1:  -0.43750  -0.31250  -0.18750  -0.06250   0.06250   0.18750   0.31250   0.43750 
 KGrids2:  -0.43750  -0.31250  -0.18750  -0.06250   0.06250   0.18750   0.31250   0.43750 
 KGrids3:   0.00000 
<Band_DFT>  Eigen, time=14.676339
<Band_DFT>  DM, time=0.000000
    1    C  MulP   1.9998  1.9998 sum   3.9997
    2    C  MulP   1.9998  1.9998 sum   3.9995
    3    C  MulP   2.0001  2.0001 sum   4.0003
    4    C  MulP   1.9998  1.9998 sum   3.9995
    5    C  MulP   1.9999  1.9999 sum   3.9997
    6    C  MulP   1.9999  1.9999 sum   3.9999
    7    C  MulP   1.9998  1.9998 sum   3.9996
    8    C  MulP   1.9999  1.9999 sum   3.9999
    9    C  MulP   2.0000  2.0000 sum   3.9999
   10    C  MulP   1.9997  1.9997 sum   3.9993
   11    C  MulP   2.0001  2.0001 sum   4.0002
   12    C  MulP   2.0000  2.0000 sum   4.0001
   13    C  MulP   1.9999  1.9999 sum   3.9999
   14    C  MulP   1.9999  1.9999 sum   3.9998
   15    C  MulP   2.0000  2.0000 sum   4.0000
   16    C  MulP   1.9998  1.9998 sum   3.9997
   17    C  MulP   1.9997  1.9997 sum   3.9995
   18    C  MulP   1.9994  1.9994 sum   3.9989
   19    C  MulP   1.9977  1.9977 sum   3.9954
   20    C  MulP   1.9968  1.9968 sum   3.9935
     ..........
     ......

 Sum of MulP: up   =   272.50000 down          =   272.50000
              total=   545.00000 ideal(neutral)=   545.00000
<DFT>  Total Spin Moment (muB) =  0.000000000000
<DFT>  Mixing_weight= 0.300000000000
<DFT>  Uele   = -258.609091477295  dUele     =   1.130807253479
<DFT>  NormRD =    0.685157395129  Criterion =   0.000000010000

******************* MD= 1  SCF=11 *******************
<Poisson>  Poisson's equation using FFT...
<Set_Hamiltonian>  Hamiltonian matrix for VNA+dVH+Vxc...
<Band>  Solving the eigenvalue problem...
 KGrids1:  -0.43750  -0.31250  -0.18750  -0.06250   0.06250   0.18750   0.31250   0.43750 
 KGrids2:  -0.43750  -0.31250  -0.18750  -0.06250   0.06250   0.18750   0.31250   0.43750 
 KGrids3:   0.00000 
<Band_DFT>  Eigen, time=14.664468
<Band_DFT>  DM, time=0.000000
    1    C  MulP   1.9998  1.9998 sum   3.9997
    2    C  MulP   1.9998  1.9998 sum   3.9995
    3    C  MulP   2.0001  2.0001 sum   4.0003
    4    C  MulP   1.9998  1.9998 sum   3.9996
    5    C  MulP   1.9999  1.9999 sum   3.9997
    6    C  MulP   1.9999  1.9999 sum   3.9999
    7    C  MulP   1.9998  1.9998 sum   3.9996
    8    C  MulP   1.9999  1.9999 sum   3.9999
    9    C  MulP   2.0000  2.0000 sum   3.9999
   10    C  MulP   1.9997  1.9997 sum   3.9993
   11    C  MulP   2.0001  2.0001 sum   4.0002
   12    C  MulP   2.0000  2.0000 sum   4.0001
   13    C  MulP   2.0000  2.0000 sum   3.9999
   14    C  MulP   1.9999  1.9999 sum   3.9998
   15    C  MulP   2.0000  2.0000 sum   4.0000
   16    C  MulP   1.9998  1.9998 sum   3.9997
   17    C  MulP   1.9998  1.9998 sum   3.9995
   18    C  MulP   1.9995  1.9995 sum   3.9989
   19    C  MulP   1.9977  1.9977 sum   3.9954
   20    C  MulP   1.9968  1.9968 sum   3.9935
     ..........
     ......

 Sum of MulP: up   =   272.50000 down          =   272.50000
              total=   545.00000 ideal(neutral)=   545.00000
<DFT>  Total Spin Moment (muB) =  0.000000000000
<DFT>  Mixing_weight= 0.300000000000
<DFT>  Uele   = -259.447943696535  dUele     =   0.838852219240
<DFT>  NormRD =    0.475979705736  Criterion =   0.000000010000

******************* MD= 1  SCF=12 *******************
<Poisson>  Poisson's equation using FFT...
<Set_Hamiltonian>  Hamiltonian matrix for VNA+dVH+Vxc...
<Band>  Solving the eigenvalue problem...
 KGrids1:  -0.43750  -0.31250  -0.18750  -0.06250   0.06250   0.18750   0.31250   0.43750 
 KGrids2:  -0.43750  -0.31250  -0.18750  -0.06250   0.06250   0.18750   0.31250   0.43750 
 KGrids3:   0.00000 
<Band_DFT>  Eigen, time=14.720348
<Band_DFT>  DM, time=0.000000
    1    C  MulP   1.9998  1.9998 sum   3.9997
    2    C  MulP   1.9998  1.9998 sum   3.9995
    3    C  MulP   2.0001  2.0001 sum   4.0003
    4    C  MulP   1.9998  1.9998 sum   3.9996
    5    C  MulP   1.9999  1.9999 sum   3.9997
    6    C  MulP   1.9999  1.9999 sum   3.9999
    7    C  MulP   1.9998  1.9998 sum   3.9996
    8    C  MulP   1.9999  1.9999 sum   3.9999
    9    C  MulP   2.0000  2.0000 sum   3.9999
   10    C  MulP   1.9997  1.9997 sum   3.9993
   11    C  MulP   2.0001  2.0001 sum   4.0002
   12    C  MulP   2.0000  2.0000 sum   4.0001
   13    C  MulP   2.0000  2.0000 sum   3.9999
   14    C  MulP   1.9999  1.9999 sum   3.9998
   15    C  MulP   2.0000  2.0000 sum   4.0000
   16    C  MulP   1.9998  1.9998 sum   3.9997
   17    C  MulP   1.9998  1.9998 sum   3.9995
   18    C  MulP   1.9995  1.9995 sum   3.9989
   19    C  MulP   1.9977  1.9977 sum   3.9954
   20    C  MulP   1.9968  1.9968 sum   3.9935
     ..........
     ......

 Sum of MulP: up   =   272.50000 down          =   272.50000
              total=   545.00000 ideal(neutral)=   545.00000
<DFT>  Total Spin Moment (muB) =  0.000000000000
<DFT>  Mixing_weight= 0.300000000000
<DFT>  Uele   = -260.088295905702  dUele     =   0.640352209167
<DFT>  NormRD =    0.331657075443  Criterion =   0.000000010000

******************* MD= 1  SCF=13 *******************
<Poisson>  Poisson's equation using FFT...
<Set_Hamiltonian>  Hamiltonian matrix for VNA+dVH+Vxc...
<Band>  Solving the eigenvalue problem...
 KGrids1:  -0.43750  -0.31250  -0.18750  -0.06250   0.06250   0.18750   0.31250   0.43750 
 KGrids2:  -0.43750  -0.31250  -0.18750  -0.06250   0.06250   0.18750   0.31250   0.43750 
 KGrids3:   0.00000 
<Band_DFT>  Eigen, time=14.642359
<Band_DFT>  DM, time=0.000000
    1    C  MulP   1.9998  1.9998 sum   3.9997
    2    C  MulP   1.9998  1.9998 sum   3.9995
    3    C  MulP   2.0001  2.0001 sum   4.0003
    4    C  MulP   1.9998  1.9998 sum   3.9996
    5    C  MulP   1.9999  1.9999 sum   3.9997
    6    C  MulP   1.9999  1.9999 sum   3.9999
    7    C  MulP   1.9998  1.9998 sum   3.9996
    8    C  MulP   1.9999  1.9999 sum   3.9999
    9    C  MulP   2.0000  2.0000 sum   3.9999
   10    C  MulP   1.9997  1.9997 sum   3.9993
   11    C  MulP   2.0001  2.0001 sum   4.0002
   12    C  MulP   2.0000  2.0000 sum   4.0001
   13    C  MulP   2.0000  2.0000 sum   3.9999
   14    C  MulP   1.9999  1.9999 sum   3.9998
   15    C  MulP   2.0000  2.0000 sum   4.0000
   16    C  MulP   1.9998  1.9998 sum   3.9997
   17    C  MulP   1.9998  1.9998 sum   3.9995
   18    C  MulP   1.9995  1.9995 sum   3.9989
   19    C  MulP   1.9977  1.9977 sum   3.9954
   20    C  MulP   1.9967  1.9967 sum   3.9935
     ..........
     ......

 Sum of MulP: up   =   272.50000 down          =   272.50000
              total=   545.00000 ideal(neutral)=   545.00000
<DFT>  Total Spin Moment (muB) =  0.000000000000
<DFT>  Mixing_weight= 0.300000000000
<DFT>  Uele   = -260.590195049706  dUele     =   0.501899144004
<DFT>  NormRD =    0.231826348876  Criterion =   0.000000010000

******************* MD= 1  SCF=14 *******************
<Poisson>  Poisson's equation using FFT...
<Set_Hamiltonian>  Hamiltonian matrix for VNA+dVH+Vxc...
<Band>  Solving the eigenvalue problem...
 KGrids1:  -0.43750  -0.31250  -0.18750  -0.06250   0.06250   0.18750   0.31250   0.43750 
 KGrids2:  -0.43750  -0.31250  -0.18750  -0.06250   0.06250   0.18750   0.31250   0.43750 
 KGrids3:   0.00000 
<Band_DFT>  Eigen, time=14.672902
<Band_DFT>  DM, time=0.000000
    1    C  MulP   1.9998  1.9998 sum   3.9997
    2    C  MulP   1.9998  1.9998 sum   3.9995
    3    C  MulP   2.0001  2.0001 sum   4.0003
    4    C  MulP   1.9998  1.9998 sum   3.9996
    5    C  MulP   1.9999  1.9999 sum   3.9997
    6    C  MulP   1.9999  1.9999 sum   3.9999
    7    C  MulP   1.9998  1.9998 sum   3.9996
    8    C  MulP   1.9999  1.9999 sum   3.9999
    9    C  MulP   2.0000  2.0000 sum   3.9999
   10    C  MulP   1.9997  1.9997 sum   3.9993
   11    C  MulP   2.0001  2.0001 sum   4.0002
   12    C  MulP   2.0000  2.0000 sum   4.0001
   13    C  MulP   2.0000  2.0000 sum   3.9999
   14    C  MulP   1.9999  1.9999 sum   3.9998
   15    C  MulP   2.0000  2.0000 sum   4.0000
   16    C  MulP   1.9998  1.9998 sum   3.9997
   17    C  MulP   1.9998  1.9998 sum   3.9995
   18    C  MulP   1.9995  1.9995 sum   3.9989
   19    C  MulP   1.9977  1.9977 sum   3.9954
   20    C  MulP   1.9967  1.9967 sum   3.9935
     ..........
     ......

 Sum of MulP: up   =   272.50000 down          =   272.50000
              total=   545.00000 ideal(neutral)=   545.00000
<DFT>  Total Spin Moment (muB) =  0.000000000000
<DFT>  Mixing_weight= 0.300000000000
<DFT>  Uele   = -260.992847811439  dUele     =   0.402652761733
<DFT>  NormRD =    0.162643653694  Criterion =   0.000000010000

******************* MD= 1  SCF=15 *******************
<Poisson>  Poisson's equation using FFT...
<Set_Hamiltonian>  Hamiltonian matrix for VNA+dVH+Vxc...
<Band>  Solving the eigenvalue problem...
 KGrids1:  -0.43750  -0.31250  -0.18750  -0.06250   0.06250   0.18750   0.31250   0.43750 
 KGrids2:  -0.43750  -0.31250  -0.18750  -0.06250   0.06250   0.18750   0.31250   0.43750 
 KGrids3:   0.00000 
<Band_DFT>  Eigen, time=14.641126
<Band_DFT>  DM, time=0.000001
    1    C  MulP   1.9998  1.9998 sum   3.9997
    2    C  MulP   1.9998  1.9998 sum   3.9995
    3    C  MulP   2.0001  2.0001 sum   4.0003
    4    C  MulP   1.9998  1.9998 sum   3.9996
    5    C  MulP   1.9999  1.9999 sum   3.9997
    6    C  MulP   1.9999  1.9999 sum   3.9999
    7    C  MulP   1.9998  1.9998 sum   3.9996
    8    C  MulP   1.9999  1.9999 sum   3.9999
    9    C  MulP   2.0000  2.0000 sum   3.9999
   10    C  MulP   1.9997  1.9997 sum   3.9993
   11    C  MulP   2.0001  2.0001 sum   4.0002
   12    C  MulP   2.0000  2.0000 sum   4.0001
   13    C  MulP   2.0000  2.0000 sum   3.9999
   14    C  MulP   1.9999  1.9999 sum   3.9998
   15    C  MulP   2.0000  2.0000 sum   4.0000
   16    C  MulP   1.9998  1.9998 sum   3.9997
   17    C  MulP   1.9998  1.9998 sum   3.9995
   18    C  MulP   1.9995  1.9995 sum   3.9989
   19    C  MulP   1.9977  1.9977 sum   3.9954
   20    C  MulP   1.9967  1.9967 sum   3.9935
     ..........
     ......

 Sum of MulP: up   =   272.50000 down          =   272.50000
              total=   545.00000 ideal(neutral)=   545.00000
<DFT>  Total Spin Moment (muB) =  0.000000000000
<DFT>  Mixing_weight= 0.030000000000
<DFT>  Uele   = -261.322364206809  dUele     =   0.329516395369
<DFT>  NormRD =    0.115521445520  Criterion =   0.000000010000

******************* MD= 1  SCF=16 *******************
<Poisson>  Poisson's equation using FFT...
<Set_Hamiltonian>  Hamiltonian matrix for VNA+dVH+Vxc...
<Band>  Solving the eigenvalue problem...
 KGrids1:  -0.43750  -0.31250  -0.18750  -0.06250   0.06250   0.18750   0.31250   0.43750 
 KGrids2:  -0.43750  -0.31250  -0.18750  -0.06250   0.06250   0.18750   0.31250   0.43750 
 KGrids3:   0.00000 
<Band_DFT>  Eigen, time=14.931561
<Band_DFT>  DM, time=0.000001
    1    C  MulP   1.9998  1.9998 sum   3.9996
    2    C  MulP   1.9997  1.9997 sum   3.9994
    3    C  MulP   2.0001  2.0001 sum   4.0001
    4    C  MulP   1.9997  1.9997 sum   3.9995
    5    C  MulP   1.9998  1.9998 sum   3.9997
    6    C  MulP   1.9999  1.9999 sum   3.9998
    7    C  MulP   1.9998  1.9998 sum   3.9996
    8    C  MulP   1.9999  1.9999 sum   3.9998
    9    C  MulP   1.9999  1.9999 sum   3.9999
   10    C  MulP   1.9996  1.9996 sum   3.9992
   11    C  MulP   2.0000  2.0000 sum   4.0000
   12    C  MulP   2.0000  2.0000 sum   4.0000
   13    C  MulP   1.9999  1.9999 sum   3.9998
   14    C  MulP   1.9999  1.9999 sum   3.9998
   15    C  MulP   2.0000  2.0000 sum   3.9999
   16    C  MulP   1.9998  1.9998 sum   3.9996
   17    C  MulP   1.9997  1.9997 sum   3.9994
   18    C  MulP   1.9994  1.9994 sum   3.9988
   19    C  MulP   1.9977  1.9977 sum   3.9953
   20    C  MulP   1.9968  1.9968 sum   3.9936
     ..........
     ......

 Sum of MulP: up   =   272.50000 down          =   272.50000
              total=   545.00000 ideal(neutral)=   545.00000
<DFT>  Total Spin Moment (muB) =  0.000000000000
<DFT>  Mixing_weight= 0.030000000000
<DFT>  Uele   = -263.170381516552  dUele     =   1.848017309744
<DFT>  NormRD =    0.013465543242  Criterion =   0.000000010000

******************* MD= 1  SCF=17 *******************
<Poisson>  Poisson's equation using FFT...
<Set_Hamiltonian>  Hamiltonian matrix for VNA+dVH+Vxc...
<Band>  Solving the eigenvalue problem...
 KGrids1:  -0.43750  -0.31250  -0.18750  -0.06250   0.06250   0.18750   0.31250   0.43750 
 KGrids2:  -0.43750  -0.31250  -0.18750  -0.06250   0.06250   0.18750   0.31250   0.43750 
 KGrids3:   0.00000 
<Band_DFT>  Eigen, time=14.944440
<Band_DFT>  DM, time=0.000000
    1    C  MulP   2.0000  2.0000 sum   4.0001
    2    C  MulP   1.9999  1.9999 sum   3.9999
    3    C  MulP   2.0004  2.0004 sum   4.0007
    4    C  MulP   2.0000  2.0000 sum   3.9999
    5    C  MulP   2.0000  2.0000 sum   4.0000
    6    C  MulP   2.0001  2.0001 sum   4.0002
    7    C  MulP   1.9999  1.9999 sum   3.9998
    8    C  MulP   2.0001  2.0001 sum   4.0001
    9    C  MulP   2.0001  2.0001 sum   4.0002
   10    C  MulP   1.9998  1.9998 sum   3.9997
   11    C  MulP   2.0002  2.0002 sum   4.0005
   12    C  MulP   2.0001  2.0001 sum   4.0002
   13    C  MulP   2.0001  2.0001 sum   4.0002
   14    C  MulP   2.0000  2.0000 sum   4.0000
   15    C  MulP   2.0001  2.0001 sum   4.0002
   16    C  MulP   2.0000  2.0000 sum   4.0000
   17    C  MulP   1.9999  1.9999 sum   3.9998
   18    C  MulP   1.9996  1.9996 sum   3.9992
   19    C  MulP   1.9978  1.9978 sum   3.9955
   20    C  MulP   1.9963  1.9963 sum   3.9927
     ..........
     ......

 Sum of MulP: up   =   272.50000 down          =   272.50000
              total=   545.00000 ideal(neutral)=   545.00000
<DFT>  Total Spin Moment (muB) =  0.000000000000
<DFT>  Mixing_weight= 0.030000000000
<DFT>  Uele   = -263.311449185715  dUele     =   0.141067669163
<DFT>  NormRD =    0.019980634610  Criterion =   0.000000010000

******************* MD= 1  SCF=18 *******************
<Poisson>  Poisson's equation using FFT...
<Set_Hamiltonian>  Hamiltonian matrix for VNA+dVH+Vxc...
<Band>  Solving the eigenvalue problem...
 KGrids1:  -0.43750  -0.31250  -0.18750  -0.06250   0.06250   0.18750   0.31250   0.43750 
 KGrids2:  -0.43750  -0.31250  -0.18750  -0.06250   0.06250   0.18750   0.31250   0.43750 
 KGrids3:   0.00000 
<Band_DFT>  Eigen, time=14.726162
<Band_DFT>  DM, time=0.000001
    1    C  MulP   1.9997  1.9997 sum   3.9995
    2    C  MulP   1.9997  1.9997 sum   3.9993
    3    C  MulP   2.0001  2.0001 sum   4.0001
    4    C  MulP   1.9997  1.9997 sum   3.9994
    5    C  MulP   1.9998  1.9998 sum   3.9996
    6    C  MulP   1.9999  1.9999 sum   3.9997
    7    C  MulP   1.9998  1.9998 sum   3.9995
    8    C  MulP   1.9999  1.9999 sum   3.9997
    9    C  MulP   1.9999  1.9999 sum   3.9998
   10    C  MulP   1.9996  1.9996 sum   3.9991
   11    C  MulP   2.0001  2.0001 sum   4.0001
   12    C  MulP   2.0001  2.0001 sum   4.0001
   13    C  MulP   1.9999  1.9999 sum   3.9998
   14    C  MulP   1.9998  1.9998 sum   3.9997
   15    C  MulP   1.9999  1.9999 sum   3.9998
   16    C  MulP   1.9998  1.9998 sum   3.9995
   17    C  MulP   1.9997  1.9997 sum   3.9994
   18    C  MulP   1.9994  1.9994 sum   3.9988
   19    C  MulP   1.9977  1.9977 sum   3.9954
   20    C  MulP   1.9971  1.9971 sum   3.9941
     ..........
     ......

 Sum of MulP: up   =   272.50000 down          =   272.50000
              total=   545.00000 ideal(neutral)=   545.00000
<DFT>  Total Spin Moment (muB) =  0.000000000000
<DFT>  Mixing_weight= 0.030000000000
<DFT>  Uele   = -263.350714225325  dUele     =   0.039265039610
<DFT>  NormRD =    0.007721055921  Criterion =   0.000000010000

******************* MD= 1  SCF=19 *******************
<Poisson>  Poisson's equation using FFT...
<Set_Hamiltonian>  Hamiltonian matrix for VNA+dVH+Vxc...
<Band>  Solving the eigenvalue problem...
 KGrids1:  -0.43750  -0.31250  -0.18750  -0.06250   0.06250   0.18750   0.31250   0.43750 
 KGrids2:  -0.43750  -0.31250  -0.18750  -0.06250   0.06250   0.18750   0.31250   0.43750 
 KGrids3:   0.00000 
<Band_DFT>  Eigen, time=14.658457
<Band_DFT>  DM, time=0.000000
    1    C  MulP   1.9999  1.9999 sum   3.9998
    2    C  MulP   1.9998  1.9998 sum   3.9996
    3    C  MulP   2.0001  2.0001 sum   4.0003
    4    C  MulP   1.9998  1.9998 sum   3.9997
    5    C  MulP   1.9999  1.9999 sum   3.9999
    6    C  MulP   2.0000  2.0000 sum   4.0000
    7    C  MulP   1.9999  1.9999 sum   3.9997
    8    C  MulP   2.0000  2.0000 sum   4.0000
    9    C  MulP   2.0000  2.0000 sum   4.0000
   10    C  MulP   1.9997  1.9997 sum   3.9994
   11    C  MulP   2.0000  2.0000 sum   4.0000
   12    C  MulP   2.0000  2.0000 sum   4.0000
   13    C  MulP   2.0000  2.0000 sum   4.0000
   14    C  MulP   2.0000  2.0000 sum   3.9999
   15    C  MulP   2.0000  2.0000 sum   4.0001
   16    C  MulP   1.9999  1.9999 sum   3.9998
   17    C  MulP   1.9998  1.9998 sum   3.9996
   18    C  MulP   1.9995  1.9995 sum   3.9989
   19    C  MulP   1.9977  1.9977 sum   3.9953
   20    C  MulP   1.9963  1.9963 sum   3.9926
     ..........
     ......

 Sum of MulP: up   =   272.50000 down          =   272.50000
              total=   545.00000 ideal(neutral)=   545.00000
<DFT>  Total Spin Moment (muB) =  0.000000000000
<DFT>  Mixing_weight= 0.030000000000
<DFT>  Uele   = -263.381872025072  dUele     =   0.031157799747
<DFT>  NormRD =    0.007092899469  Criterion =   0.000000010000

******************* MD= 1  SCF=20 *******************
<Poisson>  Poisson's equation using FFT...
<Set_Hamiltonian>  Hamiltonian matrix for VNA+dVH+Vxc...
<Band>  Solving the eigenvalue problem...
 KGrids1:  -0.43750  -0.31250  -0.18750  -0.06250   0.06250   0.18750   0.31250   0.43750 
 KGrids2:  -0.43750  -0.31250  -0.18750  -0.06250   0.06250   0.18750   0.31250   0.43750 
 KGrids3:   0.00000 
<Band_DFT>  Eigen, time=14.697798
<Band_DFT>  DM, time=0.000000
    1    C  MulP   1.9999  1.9999 sum   3.9997
    2    C  MulP   1.9998  1.9998 sum   3.9995
    3    C  MulP   2.0002  2.0002 sum   4.0004
    4    C  MulP   1.9998  1.9998 sum   3.9996
    5    C  MulP   1.9999  1.9999 sum   3.9997
    6    C  MulP   1.9999  1.9999 sum   3.9999
    7    C  MulP   1.9998  1.9998 sum   3.9996
    8    C  MulP   1.9999  1.9999 sum   3.9999
    9    C  MulP   2.0000  2.0000 sum   3.9999
   10    C  MulP   1.9997  1.9997 sum   3.9993
   11    C  MulP   2.0002  2.0002 sum   4.0003
   12    C  MulP   2.0001  2.0001 sum   4.0002
   13    C  MulP   2.0000  2.0000 sum   4.0000
   14    C  MulP   1.9999  1.9999 sum   3.9998
   15    C  MulP   2.0000  2.0000 sum   3.9999
   16    C  MulP   1.9998  1.9998 sum   3.9997
   17    C  MulP   1.9997  1.9997 sum   3.9995
   18    C  MulP   1.9995  1.9995 sum   3.9990
   19    C  MulP   1.9977  1.9977 sum   3.9955
   20    C  MulP   1.9969  1.9969 sum   3.9938
     ..........
     ......

 Sum of MulP: up   =   272.50000 down          =   272.50000
              total=   545.00000 ideal(neutral)=   545.00000
<DFT>  Total Spin Moment (muB) =  0.000000000000
<DFT>  Mixing_weight= 0.030000000000
<DFT>  Uele   = -263.427166502970  dUele     =   0.045294477899
<DFT>  NormRD =    0.001725374029  Criterion =   0.000000010000

******************* MD= 1  SCF=21 *******************
<Poisson>  Poisson's equation using FFT...
<Set_Hamiltonian>  Hamiltonian matrix for VNA+dVH+Vxc...
<Band>  Solving the eigenvalue problem...
 KGrids1:  -0.43750  -0.31250  -0.18750  -0.06250   0.06250   0.18750   0.31250   0.43750 
 KGrids2:  -0.43750  -0.31250  -0.18750  -0.06250   0.06250   0.18750   0.31250   0.43750 
 KGrids3:   0.00000 
<Band_DFT>  Eigen, time=14.651290
<Band_DFT>  DM, time=0.000000
    1    C  MulP   1.9998  1.9998 sum   3.9996
    2    C  MulP   1.9997  1.9997 sum   3.9995
    3    C  MulP   2.0001  2.0001 sum   4.0002
    4    C  MulP   1.9998  1.9998 sum   3.9995
    5    C  MulP   1.9999  1.9999 sum   3.9997
    6    C  MulP   1.9999  1.9999 sum   3.9999
    7    C  MulP   1.9998  1.9998 sum   3.9996
    8    C  MulP   1.9999  1.9999 sum   3.9999
    9    C  MulP   2.0000  2.0000 sum   3.9999
   10    C  MulP   1.9996  1.9996 sum   3.9993
   11    C  MulP   2.0000  2.0000 sum   4.0001
   12    C  MulP   2.0000  2.0000 sum   4.0000
   13    C  MulP   1.9999  1.9999 sum   3.9999
   14    C  MulP   1.9999  1.9999 sum   3.9998
   15    C  MulP   2.0000  2.0000 sum   4.0000
   16    C  MulP   1.9998  1.9998 sum   3.9997
   17    C  MulP   1.9997  1.9997 sum   3.9995
   18    C  MulP   1.9994  1.9994 sum   3.9989
   19    C  MulP   1.9977  1.9977 sum   3.9954
   20    C  MulP   1.9967  1.9967 sum   3.9933
     ..........
     ......

 Sum of MulP: up   =   272.50000 down          =   272.50000
              total=   545.00000 ideal(neutral)=   545.00000
<DFT>  Total Spin Moment (muB) =  0.000000000000
<DFT>  Mixing_weight= 0.030000000000
<DFT>  Uele   = -263.435544371459  dUele     =   0.008377868489
<DFT>  NormRD =    0.000868755337  Criterion =   0.000000010000

******************* MD= 1  SCF=22 *******************
<Poisson>  Poisson's equation using FFT...
<Set_Hamiltonian>  Hamiltonian matrix for VNA+dVH+Vxc...
<Band>  Solving the eigenvalue problem...
 KGrids1:  -0.43750  -0.31250  -0.18750  -0.06250   0.06250   0.18750   0.31250   0.43750 
 KGrids2:  -0.43750  -0.31250  -0.18750  -0.06250   0.06250   0.18750   0.31250   0.43750 
 KGrids3:   0.00000 
<Band_DFT>  Eigen, time=14.754228
<Band_DFT>  DM, time=0.000000
    1    C  MulP   1.9998  1.9998 sum   3.9997
    2    C  MulP   1.9998  1.9998 sum   3.9995
    3    C  MulP   2.0001  2.0001 sum   4.0003
    4    C  MulP   1.9998  1.9998 sum   3.9996
    5    C  MulP   1.9999  1.9999 sum   3.9997
    6    C  MulP   1.9999  1.9999 sum   3.9999
    7    C  MulP   1.9998  1.9998 sum   3.9996
    8    C  MulP   1.9999  1.9999 sum   3.9999
    9    C  MulP   2.0000  2.0000 sum   3.9999
   10    C  MulP   1.9996  1.9996 sum   3.9993
   11    C  MulP   2.0001  2.0001 sum   4.0002
   12    C  MulP   2.0000  2.0000 sum   4.0001
   13    C  MulP   2.0000  2.0000 sum   3.9999
   14    C  MulP   1.9999  1.9999 sum   3.9998
   15    C  MulP   2.0000  2.0000 sum   4.0000
   16    C  MulP   1.9998  1.9998 sum   3.9997
   17    C  MulP   1.9998  1.9998 sum   3.9995
   18    C  MulP   1.9994  1.9994 sum   3.9989
   19    C  MulP   1.9977  1.9977 sum   3.9954
   20    C  MulP   1.9967  1.9967 sum   3.9935
     ..........
     ......

 Sum of MulP: up   =   272.50000 down          =   272.50000
              total=   545.00000 ideal(neutral)=   545.00000
<DFT>  Total Spin Moment (muB) =  0.000000000000
<DFT>  Mixing_weight= 0.030000000000
<DFT>  Uele   = -263.446569706337  dUele     =   0.011025334878
<DFT>  NormRD =    0.000386616895  Criterion =   0.000000010000

******************* MD= 1  SCF=23 *******************
<Poisson>  Poisson's equation using FFT...
<Set_Hamiltonian>  Hamiltonian matrix for VNA+dVH+Vxc...
<Band>  Solving the eigenvalue problem...
 KGrids1:  -0.43750  -0.31250  -0.18750  -0.06250   0.06250   0.18750   0.31250   0.43750 
 KGrids2:  -0.43750  -0.31250  -0.18750  -0.06250   0.06250   0.18750   0.31250   0.43750 
 KGrids3:   0.00000 
<Band_DFT>  Eigen, time=14.659818
<Band_DFT>  DM, time=0.000001
    1    C  MulP   1.9998  1.9998 sum   3.9997
    2    C  MulP   1.9998  1.9998 sum   3.9995
    3    C  MulP   2.0001  2.0001 sum   4.0003
    4    C  MulP   1.9998  1.9998 sum   3.9996
    5    C  MulP   1.9999  1.9999 sum   3.9997
    6    C  MulP   1.9999  1.9999 sum   3.9999
    7    C  MulP   1.9998  1.9998 sum   3.9996
    8    C  MulP   1.9999  1.9999 sum   3.9999
    9    C  MulP   2.0000  2.0000 sum   3.9999
   10    C  MulP   1.9996  1.9996 sum   3.9993
   11    C  MulP   2.0001  2.0001 sum   4.0002
   12    C  MulP   2.0000  2.0000 sum   4.0001
   13    C  MulP   2.0000  2.0000 sum   3.9999
   14    C  MulP   1.9999  1.9999 sum   3.9998
   15    C  MulP   2.0000  2.0000 sum   4.0000
   16    C  MulP   1.9998  1.9998 sum   3.9997
   17    C  MulP   1.9997  1.9997 sum   3.9995
   18    C  MulP   1.9994  1.9994 sum   3.9989
   19    C  MulP   1.9977  1.9977 sum   3.9954
   20    C  MulP   1.9967  1.9967 sum   3.9935
     ..........
     ......

 Sum of MulP: up   =   272.50000 down          =   272.50000
              total=   545.00000 ideal(neutral)=   545.00000
<DFT>  Total Spin Moment (muB) =  0.000000000000
<DFT>  Mixing_weight= 0.030000000000
<DFT>  Uele   = -263.453178984201  dUele     =   0.006609277864
<DFT>  NormRD =    0.000165962670  Criterion =   0.000000010000

******************* MD= 1  SCF=24 *******************
<Poisson>  Poisson's equation using FFT...
<Set_Hamiltonian>  Hamiltonian matrix for VNA+dVH+Vxc...
<Band>  Solving the eigenvalue problem...
 KGrids1:  -0.43750  -0.31250  -0.18750  -0.06250   0.06250   0.18750   0.31250   0.43750 
 KGrids2:  -0.43750  -0.31250  -0.18750  -0.06250   0.06250   0.18750   0.31250   0.43750 
 KGrids3:   0.00000 
<Band_DFT>  Eigen, time=14.685251
<Band_DFT>  DM, time=0.000000
    1    C  MulP   1.9998  1.9998 sum   3.9997
    2    C  MulP   1.9998  1.9998 sum   3.9995
    3    C  MulP   2.0001  2.0001 sum   4.0003
    4    C  MulP   1.9998  1.9998 sum   3.9996
    5    C  MulP   1.9999  1.9999 sum   3.9997
    6    C  MulP   1.9999  1.9999 sum   3.9999
    7    C  MulP   1.9998  1.9998 sum   3.9996
    8    C  MulP   1.9999  1.9999 sum   3.9999
    9    C  MulP   2.0000  2.0000 sum   3.9999
   10    C  MulP   1.9996  1.9996 sum   3.9993
   11    C  MulP   2.0001  2.0001 sum   4.0002
   12    C  MulP   2.0000  2.0000 sum   4.0001
   13    C  MulP   2.0000  2.0000 sum   3.9999
   14    C  MulP   1.9999  1.9999 sum   3.9998
   15    C  MulP   2.0000  2.0000 sum   4.0000
   16    C  MulP   1.9998  1.9998 sum   3.9997
   17    C  MulP   1.9998  1.9998 sum   3.9995
   18    C  MulP   1.9994  1.9994 sum   3.9989
   19    C  MulP   1.9977  1.9977 sum   3.9954
   20    C  MulP   1.9967  1.9967 sum   3.9935
     ..........
     ......

 Sum of MulP: up   =   272.50000 down          =   272.50000
              total=   545.00000 ideal(neutral)=   545.00000
<DFT>  Total Spin Moment (muB) =  0.000000000000
<DFT>  Mixing_weight= 0.030000000000
<DFT>  Uele   = -263.455044399572  dUele     =   0.001865415371
<DFT>  NormRD =    0.000068505444  Criterion =   0.000000010000

******************* MD= 1  SCF=25 *******************
<Poisson>  Poisson's equation using FFT...
<Set_Hamiltonian>  Hamiltonian matrix for VNA+dVH+Vxc...
<Band>  Solving the eigenvalue problem...
 KGrids1:  -0.43750  -0.31250  -0.18750  -0.06250   0.06250   0.18750   0.31250   0.43750 
 KGrids2:  -0.43750  -0.31250  -0.18750  -0.06250   0.06250   0.18750   0.31250   0.43750 
 KGrids3:   0.00000 
<Band_DFT>  Eigen, time=14.660890
<Band_DFT>  DM, time=0.000000
    1    C  MulP   1.9998  1.9998 sum   3.9997
    2    C  MulP   1.9998  1.9998 sum   3.9995
    3    C  MulP   2.0001  2.0001 sum   4.0003
    4    C  MulP   1.9998  1.9998 sum   3.9996
    5    C  MulP   1.9999  1.9999 sum   3.9997
    6    C  MulP   1.9999  1.9999 sum   3.9999
    7    C  MulP   1.9998  1.9998 sum   3.9996
    8    C  MulP   1.9999  1.9999 sum   3.9999
    9    C  MulP   2.0000  2.0000 sum   3.9999
   10    C  MulP   1.9996  1.9996 sum   3.9993
   11    C  MulP   2.0001  2.0001 sum   4.0002
   12    C  MulP   2.0000  2.0000 sum   4.0001
   13    C  MulP   2.0000  2.0000 sum   3.9999
   14    C  MulP   1.9999  1.9999 sum   3.9998
   15    C  MulP   2.0000  2.0000 sum   4.0000
   16    C  MulP   1.9998  1.9998 sum   3.9997
   17    C  MulP   1.9997  1.9997 sum   3.9995
   18    C  MulP   1.9994  1.9994 sum   3.9989
   19    C  MulP   1.9977  1.9977 sum   3.9954
   20    C  MulP   1.9967  1.9967 sum   3.9935
     ..........
     ......

 Sum of MulP: up   =   272.50000 down          =   272.50000
              total=   545.00000 ideal(neutral)=   545.00000
<DFT>  Total Spin Moment (muB) =  0.000000000000
<DFT>  Mixing_weight= 0.030000000000
<DFT>  Uele   = -263.456406972962  dUele     =   0.001362573389
<DFT>  NormRD =    0.000055841125  Criterion =   0.000000010000

******************* MD= 1  SCF=26 *******************
<Poisson>  Poisson's equation using FFT...
<Set_Hamiltonian>  Hamiltonian matrix for VNA+dVH+Vxc...
<Band>  Solving the eigenvalue problem...
 KGrids1:  -0.43750  -0.31250  -0.18750  -0.06250   0.06250   0.18750   0.31250   0.43750 
 KGrids2:  -0.43750  -0.31250  -0.18750  -0.06250   0.06250   0.18750   0.31250   0.43750 
 KGrids3:   0.00000 
<Band_DFT>  Eigen, time=14.680281
<Band_DFT>  DM, time=0.000000
    1    C  MulP   1.9998  1.9998 sum   3.9997
    2    C  MulP   1.9998  1.9998 sum   3.9995
    3    C  MulP   2.0001  2.0001 sum   4.0003
    4    C  MulP   1.9998  1.9998 sum   3.9996
    5    C  MulP   1.9999  1.9999 sum   3.9997
    6    C  MulP   1.9999  1.9999 sum   3.9999
    7    C  MulP   1.9998  1.9998 sum   3.9996
    8    C  MulP   1.9999  1.9999 sum   3.9999
    9    C  MulP   2.0000  2.0000 sum   3.9999
   10    C  MulP   1.9996  1.9996 sum   3.9993
   11    C  MulP   2.0001  2.0001 sum   4.0002
   12    C  MulP   2.0000  2.0000 sum   4.0001
   13    C  MulP   2.0000  2.0000 sum   3.9999
   14    C  MulP   1.9999  1.9999 sum   3.9998
   15    C  MulP   2.0000  2.0000 sum   4.0000
   16    C  MulP   1.9998  1.9998 sum   3.9997
   17    C  MulP   1.9998  1.9998 sum   3.9995
   18    C  MulP   1.9994  1.9994 sum   3.9989
   19    C  MulP   1.9977  1.9977 sum   3.9954
   20    C  MulP   1.9967  1.9967 sum   3.9935
     ..........
     ......

 Sum of MulP: up   =   272.50000 down          =   272.50000
              total=   545.00000 ideal(neutral)=   545.00000
<DFT>  Total Spin Moment (muB) =  0.000000000000
<DFT>  Mixing_weight= 0.030000000000
<DFT>  Uele   = -263.457041375725  dUele     =   0.000634402763
<DFT>  NormRD =    0.000018612538  Criterion =   0.000000010000

******************* MD= 1  SCF=27 *******************
<Poisson>  Poisson's equation using FFT...
<Set_Hamiltonian>  Hamiltonian matrix for VNA+dVH+Vxc...
<Band>  Solving the eigenvalue problem...
 KGrids1:  -0.43750  -0.31250  -0.18750  -0.06250   0.06250   0.18750   0.31250   0.43750 
 KGrids2:  -0.43750  -0.31250  -0.18750  -0.06250   0.06250   0.18750   0.31250   0.43750 
 KGrids3:   0.00000 
<Band_DFT>  Eigen, time=14.676104
<Band_DFT>  DM, time=0.000000
    1    C  MulP   1.9998  1.9998 sum   3.9997
    2    C  MulP   1.9998  1.9998 sum   3.9995
    3    C  MulP   2.0001  2.0001 sum   4.0003
    4    C  MulP   1.9998  1.9998 sum   3.9996
    5    C  MulP   1.9999  1.9999 sum   3.9997
    6    C  MulP   1.9999  1.9999 sum   3.9999
    7    C  MulP   1.9998  1.9998 sum   3.9996
    8    C  MulP   1.9999  1.9999 sum   3.9999
    9    C  MulP   2.0000  2.0000 sum   3.9999
   10    C  MulP   1.9996  1.9996 sum   3.9993
   11    C  MulP   2.0001  2.0001 sum   4.0002
   12    C  MulP   2.0000  2.0000 sum   4.0001
   13    C  MulP   2.0000  2.0000 sum   3.9999
   14    C  MulP   1.9999  1.9999 sum   3.9998
   15    C  MulP   2.0000  2.0000 sum   4.0000
   16    C  MulP   1.9998  1.9998 sum   3.9997
   17    C  MulP   1.9998  1.9998 sum   3.9995
   18    C  MulP   1.9994  1.9994 sum   3.9989
   19    C  MulP   1.9977  1.9977 sum   3.9954
   20    C  MulP   1.9967  1.9967 sum   3.9935
     ..........
     ......

 Sum of MulP: up   =   272.50000 down          =   272.50000
              total=   545.00000 ideal(neutral)=   545.00000
<DFT>  Total Spin Moment (muB) =  0.000000000000
<DFT>  Mixing_weight= 0.030000000000
<DFT>  Uele   = -263.457442641077  dUele     =   0.000401265352
<DFT>  NormRD =    0.000008412426  Criterion =   0.000000010000

******************* MD= 1  SCF=28 *******************
<Poisson>  Poisson's equation using FFT...
<Set_Hamiltonian>  Hamiltonian matrix for VNA+dVH+Vxc...
<Band>  Solving the eigenvalue problem...
 KGrids1:  -0.43750  -0.31250  -0.18750  -0.06250   0.06250   0.18750   0.31250   0.43750 
 KGrids2:  -0.43750  -0.31250  -0.18750  -0.06250   0.06250   0.18750   0.31250   0.43750 
 KGrids3:   0.00000 
<Band_DFT>  Eigen, time=14.686065
<Band_DFT>  DM, time=0.000000
    1    C  MulP   1.9998  1.9998 sum   3.9997
    2    C  MulP   1.9998  1.9998 sum   3.9995
    3    C  MulP   2.0001  2.0001 sum   4.0003
    4    C  MulP   1.9998  1.9998 sum   3.9996
    5    C  MulP   1.9999  1.9999 sum   3.9997
    6    C  MulP   1.9999  1.9999 sum   3.9999
    7    C  MulP   1.9998  1.9998 sum   3.9996
    8    C  MulP   1.9999  1.9999 sum   3.9999
    9    C  MulP   2.0000  2.0000 sum   3.9999
   10    C  MulP   1.9996  1.9996 sum   3.9993
   11    C  MulP   2.0001  2.0001 sum   4.0002
   12    C  MulP   2.0000  2.0000 sum   4.0001
   13    C  MulP   2.0000  2.0000 sum   3.9999
   14    C  MulP   1.9999  1.9999 sum   3.9998
   15    C  MulP   2.0000  2.0000 sum   4.0000
   16    C  MulP   1.9998  1.9998 sum   3.9997
   17    C  MulP   1.9998  1.9998 sum   3.9995
   18    C  MulP   1.9994  1.9994 sum   3.9989
   19    C  MulP   1.9977  1.9977 sum   3.9954
   20    C  MulP   1.9967  1.9967 sum   3.9935
     ..........
     ......

 Sum of MulP: up   =   272.50000 down          =   272.50000
              total=   545.00000 ideal(neutral)=   545.00000
<DFT>  Total Spin Moment (muB) =  0.000000000000
<DFT>  Mixing_weight= 0.030000000000
<DFT>  Uele   = -263.457632911553  dUele     =   0.000190270477
<DFT>  NormRD =    0.000005547032  Criterion =   0.000000010000

******************* MD= 1  SCF=29 *******************
<Poisson>  Poisson's equation using FFT...
<Set_Hamiltonian>  Hamiltonian matrix for VNA+dVH+Vxc...
<Band>  Solving the eigenvalue problem...
 KGrids1:  -0.43750  -0.31250  -0.18750  -0.06250   0.06250   0.18750   0.31250   0.43750 
 KGrids2:  -0.43750  -0.31250  -0.18750  -0.06250   0.06250   0.18750   0.31250   0.43750 
 KGrids3:   0.00000 
<Band_DFT>  Eigen, time=14.683804
<Band_DFT>  DM, time=0.000000
    1    C  MulP   1.9998  1.9998 sum   3.9997
    2    C  MulP   1.9998  1.9998 sum   3.9995
    3    C  MulP   2.0001  2.0001 sum   4.0003
    4    C  MulP   1.9998  1.9998 sum   3.9996
    5    C  MulP   1.9999  1.9999 sum   3.9997
    6    C  MulP   1.9999  1.9999 sum   3.9999
    7    C  MulP   1.9998  1.9998 sum   3.9996
    8    C  MulP   1.9999  1.9999 sum   3.9999
    9    C  MulP   2.0000  2.0000 sum   3.9999
   10    C  MulP   1.9996  1.9996 sum   3.9993
   11    C  MulP   2.0001  2.0001 sum   4.0002
   12    C  MulP   2.0000  2.0000 sum   4.0001
   13    C  MulP   2.0000  2.0000 sum   3.9999
   14    C  MulP   1.9999  1.9999 sum   3.9998
   15    C  MulP   2.0000  2.0000 sum   4.0000
   16    C  MulP   1.9998  1.9998 sum   3.9997
   17    C  MulP   1.9998  1.9998 sum   3.9995
   18    C  MulP   1.9994  1.9994 sum   3.9989
   19    C  MulP   1.9977  1.9977 sum   3.9954
   20    C  MulP   1.9967  1.9967 sum   3.9935
     ..........
     ......

 Sum of MulP: up   =   272.50000 down          =   272.50000
              total=   545.00000 ideal(neutral)=   545.00000
<DFT>  Total Spin Moment (muB) =  0.000000000000
<DFT>  Mixing_weight= 0.030000000000
<DFT>  Uele   = -263.457712316045  dUele     =   0.000079404491
<DFT>  NormRD =    0.000002634731  Criterion =   0.000000010000

******************* MD= 1  SCF=30 *******************
<Poisson>  Poisson's equation using FFT...
<Set_Hamiltonian>  Hamiltonian matrix for VNA+dVH+Vxc...
<Band>  Solving the eigenvalue problem...
 KGrids1:  -0.43750  -0.31250  -0.18750  -0.06250   0.06250   0.18750   0.31250   0.43750 
 KGrids2:  -0.43750  -0.31250  -0.18750  -0.06250   0.06250   0.18750   0.31250   0.43750 
 KGrids3:   0.00000 
<Band_DFT>  Eigen, time=14.650643
<Band_DFT>  DM, time=0.000000
    1    C  MulP   1.9998  1.9998 sum   3.9997
    2    C  MulP   1.9998  1.9998 sum   3.9995
    3    C  MulP   2.0001  2.0001 sum   4.0003
    4    C  MulP   1.9998  1.9998 sum   3.9996
    5    C  MulP   1.9999  1.9999 sum   3.9997
    6    C  MulP   1.9999  1.9999 sum   3.9999
    7    C  MulP   1.9998  1.9998 sum   3.9996
    8    C  MulP   1.9999  1.9999 sum   3.9999
    9    C  MulP   2.0000  2.0000 sum   3.9999
   10    C  MulP   1.9996  1.9996 sum   3.9993
   11    C  MulP   2.0001  2.0001 sum   4.0002
   12    C  MulP   2.0000  2.0000 sum   4.0001
   13    C  MulP   2.0000  2.0000 sum   3.9999
   14    C  MulP   1.9999  1.9999 sum   3.9998
   15    C  MulP   2.0000  2.0000 sum   4.0000
   16    C  MulP   1.9998  1.9998 sum   3.9997
   17    C  MulP   1.9998  1.9998 sum   3.9995
   18    C  MulP   1.9994  1.9994 sum   3.9989
   19    C  MulP   1.9977  1.9977 sum   3.9954
   20    C  MulP   1.9967  1.9967 sum   3.9935
     ..........
     ......

 Sum of MulP: up   =   272.50000 down          =   272.50000
              total=   545.00000 ideal(neutral)=   545.00000
<DFT>  Total Spin Moment (muB) =  0.000000000000
<DFT>  Mixing_weight= 0.030000000000
<DFT>  Uele   = -263.457763649127  dUele     =   0.000051333082
<DFT>  NormRD =    0.000001543263  Criterion =   0.000000010000

******************* MD= 1  SCF=31 *******************
<Poisson>  Poisson's equation using FFT...
<Set_Hamiltonian>  Hamiltonian matrix for VNA+dVH+Vxc...
<Band>  Solving the eigenvalue problem...
 KGrids1:  -0.43750  -0.31250  -0.18750  -0.06250   0.06250   0.18750   0.31250   0.43750 
 KGrids2:  -0.43750  -0.31250  -0.18750  -0.06250   0.06250   0.18750   0.31250   0.43750 
 KGrids3:   0.00000 
<Band_DFT>  Eigen, time=14.664154
<Band_DFT>  DM, time=0.000001
    1    C  MulP   1.9998  1.9998 sum   3.9997
    2    C  MulP   1.9998  1.9998 sum   3.9995
    3    C  MulP   2.0001  2.0001 sum   4.0003
    4    C  MulP   1.9998  1.9998 sum   3.9996
    5    C  MulP   1.9999  1.9999 sum   3.9997
    6    C  MulP   1.9999  1.9999 sum   3.9999
    7    C  MulP   1.9998  1.9998 sum   3.9996
    8    C  MulP   1.9999  1.9999 sum   3.9999
    9    C  MulP   2.0000  2.0000 sum   3.9999
   10    C  MulP   1.9996  1.9996 sum   3.9993
   11    C  MulP   2.0001  2.0001 sum   4.0002
   12    C  MulP   2.0000  2.0000 sum   4.0001
   13    C  MulP   2.0000  2.0000 sum   3.9999
   14    C  MulP   1.9999  1.9999 sum   3.9998
   15    C  MulP   2.0000  2.0000 sum   4.0000
   16    C  MulP   1.9998  1.9998 sum   3.9997
   17    C  MulP   1.9998  1.9998 sum   3.9995
   18    C  MulP   1.9994  1.9994 sum   3.9989
   19    C  MulP   1.9977  1.9977 sum   3.9954
   20    C  MulP   1.9967  1.9967 sum   3.9935
     ..........
     ......

 Sum of MulP: up   =   272.50000 down          =   272.50000
              total=   545.00000 ideal(neutral)=   545.00000
<DFT>  Total Spin Moment (muB) =  0.000000000000
<DFT>  Mixing_weight= 0.030000000000
<DFT>  Uele   = -263.457798978284  dUele     =   0.000035329157
<DFT>  NormRD =    0.000000736645  Criterion =   0.000000010000

******************* MD= 1  SCF=32 *******************
<Poisson>  Poisson's equation using FFT...
<Set_Hamiltonian>  Hamiltonian matrix for VNA+dVH+Vxc...
<Band>  Solving the eigenvalue problem...
 KGrids1:  -0.43750  -0.31250  -0.18750  -0.06250   0.06250   0.18750   0.31250   0.43750 
 KGrids2:  -0.43750  -0.31250  -0.18750  -0.06250   0.06250   0.18750   0.31250   0.43750 
 KGrids3:   0.00000 
<Band_DFT>  Eigen, time=14.711465
<Band_DFT>  DM, time=0.000001
    1    C  MulP   1.9998  1.9998 sum   3.9997
    2    C  MulP   1.9998  1.9998 sum   3.9995
    3    C  MulP   2.0001  2.0001 sum   4.0003
    4    C  MulP   1.9998  1.9998 sum   3.9996
    5    C  MulP   1.9999  1.9999 sum   3.9997
    6    C  MulP   1.9999  1.9999 sum   3.9999
    7    C  MulP   1.9998  1.9998 sum   3.9996
    8    C  MulP   1.9999  1.9999 sum   3.9999
    9    C  MulP   2.0000  2.0000 sum   3.9999
   10    C  MulP   1.9996  1.9996 sum   3.9993
   11    C  MulP   2.0001  2.0001 sum   4.0002
   12    C  MulP   2.0000  2.0000 sum   4.0001
   13    C  MulP   2.0000  2.0000 sum   3.9999
   14    C  MulP   1.9999  1.9999 sum   3.9998
   15    C  MulP   2.0000  2.0000 sum   4.0000
   16    C  MulP   1.9998  1.9998 sum   3.9997
   17    C  MulP   1.9998  1.9998 sum   3.9995
   18    C  MulP   1.9994  1.9994 sum   3.9989
   19    C  MulP   1.9977  1.9977 sum   3.9954
   20    C  MulP   1.9967  1.9967 sum   3.9935
     ..........
     ......

 Sum of MulP: up   =   272.50000 down          =   272.50000
              total=   545.00000 ideal(neutral)=   545.00000
<DFT>  Total Spin Moment (muB) =  0.000000000000
<DFT>  Mixing_weight= 0.030000000000
<DFT>  Uele   = -263.457816493927  dUele     =   0.000017515643
<DFT>  NormRD =    0.000000405798  Criterion =   0.000000010000

******************* MD= 1  SCF=33 *******************
<Poisson>  Poisson's equation using FFT...
<Set_Hamiltonian>  Hamiltonian matrix for VNA+dVH+Vxc...
<Band>  Solving the eigenvalue problem...
 KGrids1:  -0.43750  -0.31250  -0.18750  -0.06250   0.06250   0.18750   0.31250   0.43750 
 KGrids2:  -0.43750  -0.31250  -0.18750  -0.06250   0.06250   0.18750   0.31250   0.43750 
 KGrids3:   0.00000 
<Band_DFT>  Eigen, time=14.643479
<Band_DFT>  DM, time=0.000000
    1    C  MulP   1.9998  1.9998 sum   3.9997
    2    C  MulP   1.9998  1.9998 sum   3.9995
    3    C  MulP   2.0001  2.0001 sum   4.0003
    4    C  MulP   1.9998  1.9998 sum   3.9996
    5    C  MulP   1.9999  1.9999 sum   3.9997
    6    C  MulP   1.9999  1.9999 sum   3.9999
    7    C  MulP   1.9998  1.9998 sum   3.9996
    8    C  MulP   1.9999  1.9999 sum   3.9999
    9    C  MulP   2.0000  2.0000 sum   3.9999
   10    C  MulP   1.9996  1.9996 sum   3.9993
   11    C  MulP   2.0001  2.0001 sum   4.0002
   12    C  MulP   2.0000  2.0000 sum   4.0001
   13    C  MulP   2.0000  2.0000 sum   3.9999
   14    C  MulP   1.9999  1.9999 sum   3.9998
   15    C  MulP   2.0000  2.0000 sum   4.0000
   16    C  MulP   1.9998  1.9998 sum   3.9997
   17    C  MulP   1.9998  1.9998 sum   3.9995
   18    C  MulP   1.9994  1.9994 sum   3.9989
   19    C  MulP   1.9977  1.9977 sum   3.9954
   20    C  MulP   1.9967  1.9967 sum   3.9935
     ..........
     ......

 Sum of MulP: up   =   272.50000 down          =   272.50000
              total=   545.00000 ideal(neutral)=   545.00000
<DFT>  Total Spin Moment (muB) =  0.000000000000
<DFT>  Mixing_weight= 0.030000000000
<DFT>  Uele   = -263.457828079335  dUele     =   0.000011585408
<DFT>  NormRD =    0.000000239268  Criterion =   0.000000010000

******************* MD= 1  SCF=34 *******************
<Poisson>  Poisson's equation using FFT...
<Set_Hamiltonian>  Hamiltonian matrix for VNA+dVH+Vxc...
<Band>  Solving the eigenvalue problem...
 KGrids1:  -0.43750  -0.31250  -0.18750  -0.06250   0.06250   0.18750   0.31250   0.43750 
 KGrids2:  -0.43750  -0.31250  -0.18750  -0.06250   0.06250   0.18750   0.31250   0.43750 
 KGrids3:   0.00000 
<Band_DFT>  Eigen, time=14.698347
<Band_DFT>  DM, time=0.000000
    1    C  MulP   1.9998  1.9998 sum   3.9997
    2    C  MulP   1.9998  1.9998 sum   3.9995
    3    C  MulP   2.0001  2.0001 sum   4.0003
    4    C  MulP   1.9998  1.9998 sum   3.9996
    5    C  MulP   1.9999  1.9999 sum   3.9997
    6    C  MulP   1.9999  1.9999 sum   3.9999
    7    C  MulP   1.9998  1.9998 sum   3.9996
    8    C  MulP   1.9999  1.9999 sum   3.9999
    9    C  MulP   2.0000  2.0000 sum   3.9999
   10    C  MulP   1.9996  1.9996 sum   3.9993
   11    C  MulP   2.0001  2.0001 sum   4.0002
   12    C  MulP   2.0000  2.0000 sum   4.0001
   13    C  MulP   2.0000  2.0000 sum   3.9999
   14    C  MulP   1.9999  1.9999 sum   3.9998
   15    C  MulP   2.0000  2.0000 sum   4.0000
   16    C  MulP   1.9998  1.9998 sum   3.9997
   17    C  MulP   1.9998  1.9998 sum   3.9995
   18    C  MulP   1.9994  1.9994 sum   3.9989
   19    C  MulP   1.9977  1.9977 sum   3.9954
   20    C  MulP   1.9967  1.9967 sum   3.9935
     ..........
     ......

 Sum of MulP: up   =   272.50000 down          =   272.50000
              total=   545.00000 ideal(neutral)=   545.00000
<DFT>  Total Spin Moment (muB) =  0.000000000000
<DFT>  Mixing_weight= 0.030000000000
<DFT>  Uele   = -263.457837140431  dUele     =   0.000009061095
<DFT>  NormRD =    0.000000109031  Criterion =   0.000000010000

******************* MD= 1  SCF=35 *******************
<Poisson>  Poisson's equation using FFT...
<Set_Hamiltonian>  Hamiltonian matrix for VNA+dVH+Vxc...
<Band>  Solving the eigenvalue problem...
 KGrids1:  -0.43750  -0.31250  -0.18750  -0.06250   0.06250   0.18750   0.31250   0.43750 
 KGrids2:  -0.43750  -0.31250  -0.18750  -0.06250   0.06250   0.18750   0.31250   0.43750 
 KGrids3:   0.00000 
<Band_DFT>  Eigen, time=14.628866
<Band_DFT>  DM, time=0.000001
    1    C  MulP   1.9998  1.9998 sum   3.9997
    2    C  MulP   1.9998  1.9998 sum   3.9995
    3    C  MulP   2.0001  2.0001 sum   4.0003
    4    C  MulP   1.9998  1.9998 sum   3.9996
    5    C  MulP   1.9999  1.9999 sum   3.9997
    6    C  MulP   1.9999  1.9999 sum   3.9999
    7    C  MulP   1.9998  1.9998 sum   3.9996
    8    C  MulP   1.9999  1.9999 sum   3.9999
    9    C  MulP   2.0000  2.0000 sum   3.9999
   10    C  MulP   1.9996  1.9996 sum   3.9993
   11    C  MulP   2.0001  2.0001 sum   4.0002
   12    C  MulP   2.0000  2.0000 sum   4.0001
   13    C  MulP   2.0000  2.0000 sum   3.9999
   14    C  MulP   1.9999  1.9999 sum   3.9998
   15    C  MulP   2.0000  2.0000 sum   4.0000
   16    C  MulP   1.9998  1.9998 sum   3.9997
   17    C  MulP   1.9998  1.9998 sum   3.9995
   18    C  MulP   1.9994  1.9994 sum   3.9989
   19    C  MulP   1.9977  1.9977 sum   3.9954
   20    C  MulP   1.9967  1.9967 sum   3.9935
     ..........
     ......

 Sum of MulP: up   =   272.50000 down          =   272.50000
              total=   545.00000 ideal(neutral)=   545.00000
<DFT>  Total Spin Moment (muB) =  0.000000000000
<DFT>  Mixing_weight= 0.030000000000
<DFT>  Uele   = -263.457841684044  dUele     =   0.000004543613
<DFT>  NormRD =    0.000000042882  Criterion =   0.000000010000

******************* MD= 1  SCF=36 *******************
<Poisson>  Poisson's equation using FFT...
<Set_Hamiltonian>  Hamiltonian matrix for VNA+dVH+Vxc...
<Band>  Solving the eigenvalue problem...
 KGrids1:  -0.43750  -0.31250  -0.18750  -0.06250   0.06250   0.18750   0.31250   0.43750 
 KGrids2:  -0.43750  -0.31250  -0.18750  -0.06250   0.06250   0.18750   0.31250   0.43750 
 KGrids3:   0.00000 
<Band_DFT>  Eigen, time=14.673936
<Band_DFT>  DM, time=0.000000
    1    C  MulP   1.9998  1.9998 sum   3.9997
    2    C  MulP   1.9998  1.9998 sum   3.9995
    3    C  MulP   2.0001  2.0001 sum   4.0003
    4    C  MulP   1.9998  1.9998 sum   3.9996
    5    C  MulP   1.9999  1.9999 sum   3.9997
    6    C  MulP   1.9999  1.9999 sum   3.9999
    7    C  MulP   1.9998  1.9998 sum   3.9996
    8    C  MulP   1.9999  1.9999 sum   3.9999
    9    C  MulP   2.0000  2.0000 sum   3.9999
   10    C  MulP   1.9996  1.9996 sum   3.9993
   11    C  MulP   2.0001  2.0001 sum   4.0002
   12    C  MulP   2.0000  2.0000 sum   4.0001
   13    C  MulP   2.0000  2.0000 sum   3.9999
   14    C  MulP   1.9999  1.9999 sum   3.9998
   15    C  MulP   2.0000  2.0000 sum   4.0000
   16    C  MulP   1.9998  1.9998 sum   3.9997
   17    C  MulP   1.9998  1.9998 sum   3.9995
   18    C  MulP   1.9994  1.9994 sum   3.9989
   19    C  MulP   1.9977  1.9977 sum   3.9954
   20    C  MulP   1.9967  1.9967 sum   3.9935
     ..........
     ......

 Sum of MulP: up   =   272.50000 down          =   272.50000
              total=   545.00000 ideal(neutral)=   545.00000
<DFT>  Total Spin Moment (muB) =  0.000000000000
<DFT>  Mixing_weight= 0.030000000000
<DFT>  Uele   = -263.457844040443  dUele     =   0.000002356399
<DFT>  NormRD =    0.000000010138  Criterion =   0.000000010000

******************* MD= 1  SCF=37 *******************
<Poisson>  Poisson's equation using FFT...
<Set_Hamiltonian>  Hamiltonian matrix for VNA+dVH+Vxc...
<Band>  Solving the eigenvalue problem...
 KGrids1:  -0.43750  -0.31250  -0.18750  -0.06250   0.06250   0.18750   0.31250   0.43750 
 KGrids2:  -0.43750  -0.31250  -0.18750  -0.06250   0.06250   0.18750   0.31250   0.43750 
 KGrids3:   0.00000 
<Band_DFT>  Eigen, time=14.636965
<Band_DFT>  DM, time=0.000000
    1    C  MulP   1.9998  1.9998 sum   3.9997
    2    C  MulP   1.9998  1.9998 sum   3.9995
    3    C  MulP   2.0001  2.0001 sum   4.0003
    4    C  MulP   1.9998  1.9998 sum   3.9996
    5    C  MulP   1.9999  1.9999 sum   3.9997
    6    C  MulP   1.9999  1.9999 sum   3.9999
    7    C  MulP   1.9998  1.9998 sum   3.9996
    8    C  MulP   1.9999  1.9999 sum   3.9999
    9    C  MulP   2.0000  2.0000 sum   3.9999
   10    C  MulP   1.9996  1.9996 sum   3.9993
   11    C  MulP   2.0001  2.0001 sum   4.0002
   12    C  MulP   2.0000  2.0000 sum   4.0001
   13    C  MulP   2.0000  2.0000 sum   3.9999
   14    C  MulP   1.9999  1.9999 sum   3.9998
   15    C  MulP   2.0000  2.0000 sum   4.0000
   16    C  MulP   1.9998  1.9998 sum   3.9997
   17    C  MulP   1.9998  1.9998 sum   3.9995
   18    C  MulP   1.9994  1.9994 sum   3.9989
   19    C  MulP   1.9977  1.9977 sum   3.9954
   20    C  MulP   1.9967  1.9967 sum   3.9935
     ..........
     ......

 Sum of MulP: up   =   272.50000 down          =   272.50000
              total=   545.00000 ideal(neutral)=   545.00000
<DFT>  Total Spin Moment (muB) =  0.000000000000
<DFT>  Mixing_weight= 0.030000000000
<DFT>  Uele   = -263.457844515819  dUele     =   0.000000475377
<DFT>  NormRD =    0.000000003322  Criterion =   0.000000010000

******************* MD= 1  SCF=38 *******************
<Poisson>  Poisson's equation using FFT...
<Set_Hamiltonian>  Hamiltonian matrix for VNA+dVH+Vxc...
<Band>  Solving the eigenvalue problem...
 KGrids1:  -0.43750  -0.31250  -0.18750  -0.06250   0.06250   0.18750   0.31250   0.43750 
 KGrids2:  -0.43750  -0.31250  -0.18750  -0.06250   0.06250   0.18750   0.31250   0.43750 
 KGrids3:   0.00000 
<Band_DFT>  Eigen, time=14.676241
<Band_DFT>  DM, time=0.000001
    1    C  MulP   1.9998  1.9998 sum   3.9997
    2    C  MulP   1.9998  1.9998 sum   3.9995
    3    C  MulP   2.0001  2.0001 sum   4.0003
    4    C  MulP   1.9998  1.9998 sum   3.9996
    5    C  MulP   1.9999  1.9999 sum   3.9997
    6    C  MulP   1.9999  1.9999 sum   3.9999
    7    C  MulP   1.9998  1.9998 sum   3.9996
    8    C  MulP   1.9999  1.9999 sum   3.9999
    9    C  MulP   2.0000  2.0000 sum   3.9999
   10    C  MulP   1.9996  1.9996 sum   3.9993
   11    C  MulP   2.0001  2.0001 sum   4.0002
   12    C  MulP   2.0000  2.0000 sum   4.0001
   13    C  MulP   2.0000  2.0000 sum   3.9999
   14    C  MulP   1.9999  1.9999 sum   3.9998
[...]
 KGrids3:   0.00000 
<Band_DFT>  Eigen, time=14.807691
<Band_DFT>  DM, time=0.000000
    1    C  MulP   1.9998  1.9998 sum   3.9996
    2    C  MulP   1.9998  1.9998 sum   3.9996
    3    C  MulP   2.0001  2.0001 sum   4.0002
    4    C  MulP   1.9998  1.9998 sum   3.9996
    5    C  MulP   1.9998  1.9998 sum   3.9997
    6    C  MulP   2.0000  2.0000 sum   3.9999
    7    C  MulP   1.9998  1.9998 sum   3.9996
    8    C  MulP   1.9999  1.9999 sum   3.9999
    9    C  MulP   2.0000  2.0000 sum   4.0000
   10    C  MulP   1.9997  1.9997 sum   3.9994
   11    C  MulP   2.0001  2.0001 sum   4.0002
   12    C  MulP   2.0000  2.0000 sum   4.0000
   13    C  MulP   1.9999  1.9999 sum   3.9999
   14    C  MulP   1.9999  1.9999 sum   3.9999
   15    C  MulP   2.0000  2.0000 sum   4.0000
   16    C  MulP   1.9999  1.9999 sum   3.9998
   17    C  MulP   1.9997  1.9997 sum   3.9994
   18    C  MulP   1.9995  1.9995 sum   3.9990
   19    C  MulP   1.9979  1.9979 sum   3.9958
   20    C  MulP   1.9961  1.9961 sum   3.9923
     ..........
     ......

 Sum of MulP: up   =   272.50000 down          =   272.50000
              total=   545.00000 ideal(neutral)=   545.00000
<DFT>  Total Spin Moment (muB) =  0.000000000000
<DFT>  Mixing_weight= 0.030000000000
<DFT>  Uele   = -263.357391689802  dUele     =   0.000000002274
<DFT>  NormRD =    0.000000532061  Criterion =   0.000000010000
<MD=61>  Force calculation
  Force calculation #1
  Force calculation #2
  Force calculation #3
  Force calculation #4
  Force calculation #5
<MD=61>  Total Energy
  Force calculation #6
  Force calculation #7

*******************************************************
                  Dipole moment (Debye)                 
*******************************************************

 Absolute D       79.15413040

                      Dx                Dy                Dz
 Total             54.32348550      -57.56383449        0.86037342
 Core           12897.66200199    22359.37350130    27969.96239849
 Electron      -12843.33851649   -22416.93733579   -27969.10202507
 Back ground       -0.00000000       -0.00000000       -0.00000000

*******************************************************
                Total Energy (Hartree) at MD =61        
*******************************************************

  Uele  =    -263.357391689802

  Ukin  =     588.712903316306
  UH0   =   -7841.380220400746
  UH1   =       1.979803795876
  Una   =    -438.041749966561
  Unl   =     -56.631488995694
  Uxc0  =    -133.787492228103
  Uxc1  =    -133.787492228103
  Ucore =    7187.707139423245
  Uhub  =       0.000000000000
  Ucs   =       0.000000000000
  Uzs   =       0.000000000000
  Uzo   =       0.000000000000
  Uef   =       0.000000000000
  UvdW  =       0.000000000000
  Uch   =       0.000000000000
  Utot  =    -825.228597283779

  UpV   =       0.000000000000
  Enpy  =    -825.228597283779
  Note:

  Uele:   band energy
  Ukin:   kinetic energy
  UH0:    electric part of screened Coulomb energy
  UH1:    difference electron-electron Coulomb energy
  Una:    neutral atom potential energy
  Unl:    non-local potential energy
  Uxc0:   exchange-correlation energy for alpha spin
  Uxc1:   exchange-correlation energy for beta spin
  Ucore:  core-core Coulomb energy
  Uhub:   LDA+U energy
  Ucs:    constraint energy for spin orientation
  Uzs:    Zeeman term for spin magnetic moment
  Uzo:    Zeeman term for orbital magnetic moment
  Uef:    electric energy by electric field
  UvdW:   semi-empirical vdW energy 
  Uch:    penalty term to create a core hole
  UpV:    pressure times volume
  Enpy:   Enthalpy = Utot + UpV
  (see also PRB 72, 045121(2005) for the energy contributions)


*******************************************************
           Computational times (s) at MD =61            
*******************************************************

  DFT in total      =  270.75125

  Set_OLP_Kin       =    1.12429
  Set_Nonlocal      =    3.04587
  Set_ProExpn_VNA   =    4.92744
  Set_Hamiltonian   =   12.63125
  Poisson           =    0.15133
  diagonalization   =  204.22201
  Mixing_DM         =    1.31946
  Force             =    3.94823
  Total_Energy      =    1.32571
  Set_Aden_Grid     =    0.27204
  Set_Orbitals_Grid =    0.50117
  Set_Density_Grid  =    5.08090
  RestartFileDFT    =   31.81278
  Mulliken_Charge   =    0.01115
  FFT(2D)_Density   =    0.17056

The SCF was achieved at MD=  61

*******************************************************
             MD or geometry opt. at MD =61              
*******************************************************


The geometry optimization was achieved.
<RF>  |Maximum force| (Hartree/Bohr) = 0.000098049642
<RF>  Criterion       (Hartree/Bohr) = 0.000100000000

     atom=   1, XYZ(ang) Fxyz(a.u.)=   0.0320    1.3888   10.3220    -0.0000    0.0000    0.0000
     atom=   2, XYZ(ang) Fxyz(a.u.)=  -1.2000    3.5272   10.3589     0.0000   -0.0000   -0.0000
     atom=   3, XYZ(ang) Fxyz(a.u.)=  -2.4344    5.6637   10.3852    -0.0000    0.0000    0.0000
     atom=   4, XYZ(ang) Fxyz(a.u.)=  -3.6673    7.8011   10.3645     0.0000    0.0000    0.0000
     atom=   5, XYZ(ang) Fxyz(a.u.)=  -4.9031    9.9373   10.3271     0.0000    0.0000    0.0000
     atom=   6, XYZ(ang) Fxyz(a.u.)=  -6.1367   12.0731   10.2963     0.0000    0.0000    0.0000
     atom=   7, XYZ(ang) Fxyz(a.u.)=  -7.3699   14.2101   10.2847     0.0000    0.0000    0.0000
     atom=   8, XYZ(ang) Fxyz(a.u.)=  -8.6043   16.3466   10.2944     0.0000    0.0000    0.0001
     atom=   9, XYZ(ang) Fxyz(a.u.)=   2.4993    1.3888   10.3042    -0.0000    0.0000   -0.0000
     atom=  10, XYZ(ang) Fxyz(a.u.)=   1.2658    3.5264   10.3508    -0.0000    0.0000   -0.0000
     atom=  11, XYZ(ang) Fxyz(a.u.)=   0.0350    5.6621   10.4233    -0.0000   -0.0000    0.0000
     atom=  12, XYZ(ang) Fxyz(a.u.)=  -1.2011    7.8028   10.4412     0.0000    0.0000   -0.0000
     atom=  13, XYZ(ang) Fxyz(a.u.)=  -2.4355    9.9371   10.3832     0.0000    0.0000   -0.0000
     atom=  14, XYZ(ang) Fxyz(a.u.)=  -3.6695   12.0740   10.3292     0.0000    0.0000    0.0000
     atom=  15, XYZ(ang) Fxyz(a.u.)=  -4.9035   14.2102   10.2947     0.0000    0.0000    0.0001
     atom=  16, XYZ(ang) Fxyz(a.u.)=  -6.1366   16.3458   10.2859     0.0000    0.0000    0.0000
     atom=  17, XYZ(ang) Fxyz(a.u.)=   4.9657    1.3886   10.3093     0.0000    0.0000   -0.0000
     atom=  18, XYZ(ang) Fxyz(a.u.)=   3.7325    3.5229   10.3488     0.0000    0.0000    0.0000
     atom=  19, XYZ(ang) Fxyz(a.u.)=   2.5019    5.6608   10.4354    -0.0000   -0.0000    0.0000
     atom=  20, XYZ(ang) Fxyz(a.u.)=   1.2621    7.7965   10.5786    -0.0000    0.0000    0.0000
     atom=  21, XYZ(ang) Fxyz(a.u.)=   0.0303    9.9399   10.4947     0.0000    0.0000   -0.0000
     atom=  22, XYZ(ang) Fxyz(a.u.)=  -1.2051   12.0750   10.4049     0.0000    0.0000   -0.0000
     atom=  23, XYZ(ang) Fxyz(a.u.)=  -2.4365   14.2098   10.3401     0.0000    0.0000   -0.0000
     atom=  24, XYZ(ang) Fxyz(a.u.)=  -3.6692   16.3465   10.3084     0.0000    0.0000    0.0000
     atom=  25, XYZ(ang) Fxyz(a.u.)=   7.4331    1.3886   10.3343     0.0000    0.0000   -0.0000
     atom=  26, XYZ(ang) Fxyz(a.u.)=   6.1994    3.5256   10.3559     0.0000    0.0000    0.0000
     atom=  27, XYZ(ang) Fxyz(a.u.)=   4.9635    5.6593   10.4372    -0.0000    0.0000    0.0000
     atom=  28, XYZ(ang) Fxyz(a.u.)=   3.7325    7.7665   10.6655    -0.0000    0.0000    0.0000
     atom=  29, XYZ(ang) Fxyz(a.u.)=   2.4711    9.9509   10.7287    -0.0000    0.0000    0.0000
     atom=  30, XYZ(ang) Fxyz(a.u.)=   1.2610   12.0726   10.5097     0.0000    0.0000   -0.0000
     atom=  31, XYZ(ang) Fxyz(a.u.)=   0.0310   14.2097   10.4073     0.0000    0.0000   -0.0000
     atom=  32, XYZ(ang) Fxyz(a.u.)=  -1.2027   16.3464   10.3528     0.0000    0.0000    0.0000
     atom=  33, XYZ(ang) Fxyz(a.u.)=   9.9007    1.3892   10.3634    -0.0000    0.0000    0.0000
     atom=  34, XYZ(ang) Fxyz(a.u.)=   8.6655    3.5269   10.3657     0.0000    0.0000    0.0000
     atom=  35, XYZ(ang) Fxyz(a.u.)=   7.4307    5.6618   10.4231     0.0000    0.0000    0.0000
     atom=  36, XYZ(ang) Fxyz(a.u.)=   6.2028    7.7973   10.5664    -0.0000    0.0000    0.0000
     atom=  37, XYZ(ang) Fxyz(a.u.)=   4.9920    9.9494   10.6939    -0.0000    0.0000    0.0000
     atom=  38, XYZ(ang) Fxyz(a.u.)=   3.7336   12.0764   10.6071    -0.0000    0.0000    0.0000
     atom=  39, XYZ(ang) Fxyz(a.u.)=   2.4967   14.2080   10.4752     0.0000    0.0000   -0.0000
     atom=  40, XYZ(ang) Fxyz(a.u.)=   1.2651   16.3446   10.3985     0.0000    0.0000    0.0000
     atom=  41, XYZ(ang) Fxyz(a.u.)=  12.3675    1.3887   10.3827     0.0000    0.0000    0.0000
     atom=  42, XYZ(ang) Fxyz(a.u.)=  11.1335    3.5261   10.3683     0.0000    0.0000    0.0000
     atom=  43, XYZ(ang) Fxyz(a.u.)=   9.9000    5.6634   10.3826    -0.0000    0.0000   -0.0000
     atom=  44, XYZ(ang) Fxyz(a.u.)=   8.6664    7.8024   10.4241    -0.0000    0.0000    0.0000
     atom=  45, XYZ(ang) Fxyz(a.u.)=   7.4341    9.9400   10.4567    -0.0000    0.0000    0.0001
     atom=  46, XYZ(ang) Fxyz(a.u.)=   6.2022   12.0710   10.4670     0.0000    0.0000    0.0000
     atom=  47, XYZ(ang) Fxyz(a.u.)=   4.9682   14.2075   10.4573     0.0000    0.0000   -0.0000
     atom=  48, XYZ(ang) Fxyz(a.u.)=   3.7326   16.3456   10.4173     0.0000    0.0000   -0.0000
     atom=  49, XYZ(ang) Fxyz(a.u.)=  14.8361    1.3887   10.3766    -0.0000    0.0000   -0.0000
     atom=  50, XYZ(ang) Fxyz(a.u.)=  13.6019    3.5264   10.3672    -0.0000    0.0000    0.0000
     atom=  51, XYZ(ang) Fxyz(a.u.)=  12.3679    5.6641   10.3571    -0.0000    0.0000   -0.0000
     atom=  52, XYZ(ang) Fxyz(a.u.)=  11.1327    7.8009   10.3536     0.0000    0.0000   -0.0000
     atom=  53, XYZ(ang) Fxyz(a.u.)=   9.9002    9.9370   10.3567     0.0000    0.0000    0.0000
     atom=  54, XYZ(ang) Fxyz(a.u.)=   8.6692   12.0746   10.3665    -0.0000    0.0000   -0.0000
     atom=  55, XYZ(ang) Fxyz(a.u.)=   7.4332   14.2090   10.3746     0.0000   -0.0000   -0.0000
     atom=  56, XYZ(ang) Fxyz(a.u.)=   6.1998   16.3445   10.3806    -0.0000    0.0000   -0.0000
     atom=  57, XYZ(ang) Fxyz(a.u.)=  17.3028    1.3893   10.3503     0.0000    0.0000   -0.0000
     atom=  58, XYZ(ang) Fxyz(a.u.)=  16.0702    3.5262   10.3636    -0.0000    0.0000   -0.0000
     atom=  59, XYZ(ang) Fxyz(a.u.)=  14.8360    5.6642   10.3584    -0.0000    0.0000    0.0000
     atom=  60, XYZ(ang) Fxyz(a.u.)=  13.6018    7.8001   10.3372    -0.0000    0.0000    0.0000
     atom=  61, XYZ(ang) Fxyz(a.u.)=  12.3682    9.9372   10.3175    -0.0000    0.0000    0.0000
     atom=  62, XYZ(ang) Fxyz(a.u.)=  11.1343   12.0739   10.3076    -0.0000    0.0000   -0.0000
     atom=  63, XYZ(ang) Fxyz(a.u.)=   9.9010   14.2096   10.3130     0.0000    0.0000   -0.0000
     atom=  64, XYZ(ang) Fxyz(a.u.)=   8.6675   16.3463   10.3306     0.0000    0.0000    0.0000
     atom=  65, XYZ(ang) Fxyz(a.u.)=   1.2650    0.6769   10.3031     0.0000    0.0000   -0.0000
     atom=  66, XYZ(ang) Fxyz(a.u.)=   0.0328    2.8147   10.3413    -0.0000   -0.0000    0.0000
     atom=  67, XYZ(ang) Fxyz(a.u.)=  -1.1976    4.9524   10.3869     0.0000    0.0000    0.0000
     atom=  68, XYZ(ang) Fxyz(a.u.)=  -2.4322    7.0904   10.3949     0.0000    0.0000    0.0000
     atom=  69, XYZ(ang) Fxyz(a.u.)=  -3.6680    9.2252   10.3556     0.0000    0.0000    0.0000
     atom=  70, XYZ(ang) Fxyz(a.u.)=  -4.9032   11.3612   10.3136     0.0000    0.0000   -0.0000
     atom=  71, XYZ(ang) Fxyz(a.u.)=  -6.1366   13.4983   10.2874    -0.0000    0.0000   -0.0001
     atom=  72, XYZ(ang) Fxyz(a.u.)=  -7.3699   15.6342   10.2840     0.0000    0.0000   -0.0000
     atom=  73, XYZ(ang) Fxyz(a.u.)=   3.7325    0.6772   10.2955     0.0000    0.0000    0.0000
     atom=  74, XYZ(ang) Fxyz(a.u.)=   2.4999    2.8130   10.3296     0.0000    0.0000    0.0000
     atom=  75, XYZ(ang) Fxyz(a.u.)=   1.2666    4.9506   10.3978    -0.0000    0.0000   -0.0000
     atom=  76, XYZ(ang) Fxyz(a.u.)=   0.0408    7.0924   10.4826    -0.0000    0.0000    0.0000
     atom=  77, XYZ(ang) Fxyz(a.u.)=  -1.2020    9.2254   10.4365    -0.0000    0.0000    0.0001
     atom=  78, XYZ(ang) Fxyz(a.u.)=  -2.4361   11.3626   10.3703    -0.0000    0.0000    0.0000
     atom=  79, XYZ(ang) Fxyz(a.u.)=  -3.6692   13.4978   10.3181    -0.0000    0.0000   -0.0000
     atom=  80, XYZ(ang) Fxyz(a.u.)=  -4.9032   15.6341   10.2923     0.0000    0.0000   -0.0000
     atom=  81, XYZ(ang) Fxyz(a.u.)=   6.2002    0.6768   10.3140     0.0000    0.0000    0.0000
     atom=  82, XYZ(ang) Fxyz(a.u.)=   4.9653    2.8129   10.3333     0.0000    0.0000   -0.0000
     atom=  83, XYZ(ang) Fxyz(a.u.)=   3.7325    4.9494   10.4022    -0.0000    0.0000   -0.0000
     atom=  84, XYZ(ang) Fxyz(a.u.)=   2.5080    7.0831   10.5589     0.0000    0.0000   -0.0000
     atom=  85, XYZ(ang) Fxyz(a.u.)=   1.2651    9.2315   10.6089    -0.0000    0.0000    0.0000
     atom=  86, XYZ(ang) Fxyz(a.u.)=   0.0300   11.3619   10.4723    -0.0000    0.0000    0.0000
     atom=  87, XYZ(ang) Fxyz(a.u.)=  -1.2035   13.4976   10.3830    -0.0000    0.0000    0.0000
     atom=  88, XYZ(ang) Fxyz(a.u.)=  -2.4358   15.6348   10.3312    -0.0000    0.0000   -0.0000
     atom=  89, XYZ(ang) Fxyz(a.u.)=   8.6666    0.6768   10.3486     0.0000    0.0000   -0.0000
     atom=  90, XYZ(ang) Fxyz(a.u.)=   7.4326    2.8143   10.3496    -0.0000    0.0000    0.0000
     atom=  91, XYZ(ang) Fxyz(a.u.)=   6.1988    4.9499   10.4002     0.0000    0.0000   -0.0000
     atom=  92, XYZ(ang) Fxyz(a.u.)=   4.9579    7.0825   10.5569    -0.0000    0.0000   -0.0000
     atom=  93, XYZ(ang) Fxyz(a.u.)=   3.7407    9.2125   11.1035     0.0000   -0.0000    0.0000
     atom=  94, XYZ(ang) Fxyz(a.u.)=   2.4918   11.3559   10.6254    -0.0000    0.0000   -0.0000
     atom=  95, XYZ(ang) Fxyz(a.u.)=   1.2641   13.4974   10.4629    -0.0000    0.0000    0.0000
     atom=  96, XYZ(ang) Fxyz(a.u.)=   0.0316   15.6333   10.3856    -0.0000    0.0000   -0.0000
     atom=  97, XYZ(ang) Fxyz(a.u.)=  11.1345    0.6766   10.3807     0.0000    0.0000   -0.0000
     atom=  98, XYZ(ang) Fxyz(a.u.)=   9.9003    2.8142   10.3642     0.0000    0.0000   -0.0000
     atom=  99, XYZ(ang) Fxyz(a.u.)=   8.6637    4.9520   10.3884     0.0000    0.0000    0.0000
     atom= 100, XYZ(ang) Fxyz(a.u.)=   7.4256    7.0918   10.4738     0.0000    0.0000    0.0000
     atom= 101, XYZ(ang) Fxyz(a.u.)=   6.1989    9.2326   10.5740    -0.0000    0.0000   -0.0000
     atom= 102, XYZ(ang) Fxyz(a.u.)=   4.9732   11.3540   10.5875    -0.0000   -0.0000   -0.0000
     atom= 103, XYZ(ang) Fxyz(a.u.)=   3.7328   13.4878   10.5179    -0.0000    0.0000    0.0000
     atom= 104, XYZ(ang) Fxyz(a.u.)=   2.4983   15.6306   10.4309     0.0000    0.0000   -0.0000
     atom= 105, XYZ(ang) Fxyz(a.u.)=  13.6019    0.6743   10.3921     0.0000    0.0000   -0.0000
     atom= 106, XYZ(ang) Fxyz(a.u.)=  12.3678    2.8138   10.3715     0.0000    0.0000   -0.0000
     atom= 107, XYZ(ang) Fxyz(a.u.)=  11.1320    4.9524   10.3676     0.0000    0.0000    0.0000
     atom= 108, XYZ(ang) Fxyz(a.u.)=   9.8978    7.0901   10.3843     0.0000    0.0000    0.0000
     atom= 109, XYZ(ang) Fxyz(a.u.)=   8.6666    9.2254   10.4080    -0.0000    0.0000   -0.0000
     atom= 110, XYZ(ang) Fxyz(a.u.)=   7.4341   11.3614   10.4288    -0.0000    0.0000    0.0000
     atom= 111, XYZ(ang) Fxyz(a.u.)=   6.2001   13.4963   10.4298    -0.0000   -0.0000    0.0000
     atom= 112, XYZ(ang) Fxyz(a.u.)=   4.9669   15.6303   10.4185     0.0000    0.0000    0.0000
     atom= 113, XYZ(ang) Fxyz(a.u.)=  16.0692    0.6766   10.3681     0.0000    0.0000    0.0000
     atom= 114, XYZ(ang) Fxyz(a.u.)=  14.8362    2.8139   10.3681     0.0000    0.0000    0.0000
     atom= 115, XYZ(ang) Fxyz(a.u.)=  13.6020    4.9517   10.3589     0.0000    0.0000    0.0000
     atom= 116, XYZ(ang) Fxyz(a.u.)=  12.3677    7.0882   10.3463     0.0000    0.0000    0.0000
     atom= 117, XYZ(ang) Fxyz(a.u.)=  11.1332    9.2251   10.3392     0.0000    0.0000    0.0000
     atom= 118, XYZ(ang) Fxyz(a.u.)=   9.9007   11.3624   10.3397     0.0000    0.0000    0.0000
     atom= 119, XYZ(ang) Fxyz(a.u.)=   8.6680   13.4972   10.3480    -0.0000    0.0000    0.0000
     atom= 120, XYZ(ang) Fxyz(a.u.)=   7.4332   15.6329   10.3603    -0.0000    0.0000   -0.0000
     atom= 121, XYZ(ang) Fxyz(a.u.)=  18.5369    0.6768   10.3322    -0.0000    0.0000   -0.0000
     atom= 122, XYZ(ang) Fxyz(a.u.)=  17.3035    2.8144   10.3558     0.0000    0.0000    0.0000
     atom= 123, XYZ(ang) Fxyz(a.u.)=  16.0721    4.9527   10.3672     0.0000    0.0000   -0.0000
     atom= 124, XYZ(ang) Fxyz(a.u.)=  14.8362    7.0883   10.3503     0.0000    0.0000   -0.0000
     atom= 125, XYZ(ang) Fxyz(a.u.)=  13.6017    9.2253   10.3237    -0.0000    0.0000   -0.0000
     atom= 126, XYZ(ang) Fxyz(a.u.)=  12.3683   11.3612   10.3029     0.0000    0.0000   -0.0000
     atom= 127, XYZ(ang) Fxyz(a.u.)=  11.1341   13.4977   10.2976    -0.0000    0.0000   -0.0000
     atom= 128, XYZ(ang) Fxyz(a.u.)=   9.9007   15.6346   10.3091    -0.0000    0.0000   -0.0000
     atom= 129, XYZ(ang) Fxyz(a.u.)=   3.6798    9.1459   12.6935    -0.0000    0.0000   -0.0000
     atom= 130, XYZ(ang) Fxyz(a.u.)=   3.0220    8.3264   13.3185    -0.0000    0.0000   -0.0000
     atom= 131, XYZ(ang) Fxyz(a.u.)=   4.4164   10.1199   13.2875     0.0000   -0.0000   -0.0000
     atom= 132, XYZ(ang) Fxyz(a.u.)=   4.3151    9.9697   14.2521     0.0001   -0.0001   -0.0001
     atom= 133, XYZ(ang) Fxyz(a.u.)=   4.9237    8.7373   17.1729     0.0000   -0.0001    0.0000
     atom= 134, XYZ(ang) Fxyz(a.u.)=   4.8491    9.3584   16.1674     0.0000    0.0001   -0.0001
     atom= 135, XYZ(ang) Fxyz(a.u.)=   5.0080    8.1240   18.1849    -0.0001    0.0000   -0.0001

outputting data on grids to files...


***********************************************************
***********************************************************
               Computational Time (second)                 
***********************************************************
***********************************************************

                               Min_ID   Min_Time       Max_ID   Max_Time
   Total Computational Time =     3    21773.683          0    21774.177
   readfile                 =    60        3.881          2        3.887
   truncation               =    38       56.876         47       62.765
   MD_pac                   =     0        3.764         22        3.994
   OutData                  =    44       52.410          0       52.699
   DFT                      =    47    21650.525         38    21656.414

*** In DFT ***

   Set_OLP_Kin              =    38       46.072         23      106.290
   Set_Nonlocal             =    23      150.050         38      210.171
   Set_ProExpn_VNA          =    38      293.161         23      316.228
   Set_Hamiltonian          =    34     1080.764          5     1080.776
   Poisson                  =     8       12.840          3       12.844
   Diagonalization          =     0    17130.680         20    17130.706
   Mixing_DM                =    36      114.945          1      114.951
   Force                    =     8      245.453          7      245.456
   Total_Energy             =     7       81.671          0       81.692
   Set_Aden_Grid            =    23        4.337         38       27.404
   Set_Orbitals_Grid        =    38       21.372         63       47.814
   Set_Density_Grid         =    19      400.927         59      432.711
   RestartFileDFT           =    15     1801.764          0     1920.251
   Mulliken_Charge          =    34        2.503         42        2.504
   FFT(2D)_Density          =    51       13.828         37       13.840
   Others                   =    56       15.759         21      139.750

The calculation was normally finished.
