
The number of threads in each node for OpenMP parallelization is 1.


*******************************************************
*******************************************************
 Welcome to OpenMX   Ver. 3.9.9                           
 Copyright (C), 2002-2019, T. Ozaki                    
 OpenMX comes with ABSOLUTELY NO WARRANTY.             
 This is free software, and you are welcome to         
 redistribute it under the constitution of the GNU-GPL.
*******************************************************
*******************************************************

Automatic determination of Kerker_factor:   3.992945286074


<Input_std>  Your input file was normally read.
<Input_std>  The system includes 2 species and 133 atoms.

*******************************************************
                     PAO and VPS                       
*******************************************************

<SetPara_DFT>  PAOs of species C were normally found.
<SetPara_DFT>  PAOs of species O were normally found.
<SetPara_DFT>  VPSs of species C were normally found.
               C_PBE19.vps is j-dependent.
               In case of scf.SpinOrbit.Coupling=off,
               j-dependent pseudo potentials are averaged by j-degeneracy,
               which corresponds to a scalar relativistic treatment.
<SetPara_DFT>  VPSs of species O were normally found.
               O_PBE19.vps is j-dependent.
               In case of scf.SpinOrbit.Coupling=off,
               j-dependent pseudo potentials are averaged by j-degeneracy,
               which corresponds to a scalar relativistic treatment.

*******************************************************
     Fourier transform of PAO and projectors of VNL    
*******************************************************

<FT_PAO>          Fourier transform of pseudo atomic orbitals
<FT_NLP>          Fourier transform of non-local projectors
<FT_ProExpn_VNA>  Fourier transform of VNA separable projectors
<FT_VNA>          Fourier transform of VNA potentials
<FT_ProductPAO>   Fourier transform of product of PAOs

*******************************************************
  Allocation of atoms to processors at MD_iter=    1     
*******************************************************

 proc =   0  # of atoms=   2  estimated weight=         2.00000
 proc =   1  # of atoms=   2  estimated weight=         2.00000
 proc =   2  # of atoms=   2  estimated weight=         2.00000
 proc =   3  # of atoms=   2  estimated weight=         2.00000
 proc =   4  # of atoms=   2  estimated weight=         2.00000
 proc =   5  # of atoms=   2  estimated weight=         2.00000
 proc =   6  # of atoms=   2  estimated weight=         2.00000
 proc =   7  # of atoms=   2  estimated weight=         2.00000
 proc =   8  # of atoms=   2  estimated weight=         2.00000
 proc =   9  # of atoms=   2  estimated weight=         2.00000
 proc =  10  # of atoms=   2  estimated weight=         2.00000
 proc =  11  # of atoms=   2  estimated weight=         2.00000
 proc =  12  # of atoms=   2  estimated weight=         2.00000
 proc =  13  # of atoms=   2  estimated weight=         2.00000
 proc =  14  # of atoms=   2  estimated weight=         2.00000
 proc =  15  # of atoms=   3  estimated weight=         3.00000
 proc =  16  # of atoms=   2  estimated weight=         2.00000
 proc =  17  # of atoms=   2  estimated weight=         2.00000
 proc =  18  # of atoms=   2  estimated weight=         2.00000
 proc =  19  # of atoms=   2  estimated weight=         2.00000
 proc =  20  # of atoms=   2  estimated weight=         2.00000
 proc =  21  # of atoms=   2  estimated weight=         2.00000
 proc =  22  # of atoms=   2  estimated weight=         2.00000
 proc =  23  # of atoms=   2  estimated weight=         2.00000
 proc =  24  # of atoms=   2  estimated weight=         2.00000
 proc =  25  # of atoms=   2  estimated weight=         2.00000
 proc =  26  # of atoms=   2  estimated weight=         2.00000
 proc =  27  # of atoms=   2  estimated weight=         2.00000
 proc =  28  # of atoms=   2  estimated weight=         2.00000
 proc =  29  # of atoms=   2  estimated weight=         2.00000
 proc =  30  # of atoms=   2  estimated weight=         2.00000
 proc =  31  # of atoms=   3  estimated weight=         3.00000
 proc =  32  # of atoms=   2  estimated weight=         2.00000
 proc =  33  # of atoms=   2  estimated weight=         2.00000
 proc =  34  # of atoms=   2  estimated weight=         2.00000
 proc =  35  # of atoms=   2  estimated weight=         2.00000
 proc =  36  # of atoms=   2  estimated weight=         2.00000
 proc =  37  # of atoms=   2  estimated weight=         2.00000
 proc =  38  # of atoms=   2  estimated weight=         2.00000
 proc =  39  # of atoms=   2  estimated weight=         2.00000
 proc =  40  # of atoms=   2  estimated weight=         2.00000
 proc =  41  # of atoms=   2  estimated weight=         2.00000
 proc =  42  # of atoms=   2  estimated weight=         2.00000
 proc =  43  # of atoms=   2  estimated weight=         2.00000
 proc =  44  # of atoms=   2  estimated weight=         2.00000
 proc =  45  # of atoms=   2  estimated weight=         2.00000
 proc =  46  # of atoms=   2  estimated weight=         2.00000
 proc =  47  # of atoms=   3  estimated weight=         3.00000
 proc =  48  # of atoms=   2  estimated weight=         2.00000
 proc =  49  # of atoms=   2  estimated weight=         2.00000
 proc =  50  # of atoms=   2  estimated weight=         2.00000
 proc =  51  # of atoms=   2  estimated weight=         2.00000
 proc =  52  # of atoms=   2  estimated weight=         2.00000
 proc =  53  # of atoms=   2  estimated weight=         2.00000
 proc =  54  # of atoms=   2  estimated weight=         2.00000
 proc =  55  # of atoms=   3  estimated weight=         3.00000
 proc =  56  # of atoms=   2  estimated weight=         2.00000
 proc =  57  # of atoms=   2  estimated weight=         2.00000
 proc =  58  # of atoms=   2  estimated weight=         2.00000
 proc =  59  # of atoms=   2  estimated weight=         2.00000
 proc =  60  # of atoms=   2  estimated weight=         2.00000
 proc =  61  # of atoms=   2  estimated weight=         2.00000
 proc =  62  # of atoms=   2  estimated weight=         2.00000
 proc =  63  # of atoms=   3  estimated weight=         3.00000




*******************************************************
        Analysis of neighbors and setting of grids        
*******************************************************

TFNAN=    5988   Average FNAN=  45.02256
TSNAN=       0   Average SNAN=   0.00000
<truncation> CpyCell= 1 ct_AN=   1 FNAN SNAN  45   0
<truncation> CpyCell= 1 ct_AN=   2 FNAN SNAN  45   0
<truncation> CpyCell= 1 ct_AN=   3 FNAN SNAN  45   0
<truncation> CpyCell= 1 ct_AN=   4 FNAN SNAN  45   0
<truncation> CpyCell= 1 ct_AN=   5 FNAN SNAN  45   0
<truncation> CpyCell= 1 ct_AN=   6 FNAN SNAN  45   0
<truncation> CpyCell= 1 ct_AN=   7 FNAN SNAN  45   0
<truncation> CpyCell= 1 ct_AN=   8 FNAN SNAN  45   0
<truncation> CpyCell= 1 ct_AN=   9 FNAN SNAN  45   0
<truncation> CpyCell= 1 ct_AN=  10 FNAN SNAN  46   0
<truncation> CpyCell= 1 ct_AN=  11 FNAN SNAN  47   0
<truncation> CpyCell= 1 ct_AN=  12 FNAN SNAN  47   0
<truncation> CpyCell= 1 ct_AN=  13 FNAN SNAN  45   0
<truncation> CpyCell= 1 ct_AN=  14 FNAN SNAN  45   0
<truncation> CpyCell= 1 ct_AN=  15 FNAN SNAN  45   0
<truncation> CpyCell= 1 ct_AN=  16 FNAN SNAN  45   0
<truncation> CpyCell= 1 ct_AN=  17 FNAN SNAN  45   0
<truncation> CpyCell= 1 ct_AN=  18 FNAN SNAN  47   0
<truncation> CpyCell= 1 ct_AN=  19 FNAN SNAN  47   0
<truncation> CpyCell= 1 ct_AN=  20 FNAN SNAN  48   0
     ..........
     ......

TFNAN=    5988   Average FNAN=  45.02256
TSNAN=       0   Average SNAN=   0.00000
<truncation> CpyCell= 2 ct_AN=   1 FNAN SNAN  45   0
<truncation> CpyCell= 2 ct_AN=   2 FNAN SNAN  45   0
<truncation> CpyCell= 2 ct_AN=   3 FNAN SNAN  45   0
<truncation> CpyCell= 2 ct_AN=   4 FNAN SNAN  45   0
<truncation> CpyCell= 2 ct_AN=   5 FNAN SNAN  45   0
<truncation> CpyCell= 2 ct_AN=   6 FNAN SNAN  45   0
<truncation> CpyCell= 2 ct_AN=   7 FNAN SNAN  45   0
<truncation> CpyCell= 2 ct_AN=   8 FNAN SNAN  45   0
<truncation> CpyCell= 2 ct_AN=   9 FNAN SNAN  45   0
<truncation> CpyCell= 2 ct_AN=  10 FNAN SNAN  46   0
<truncation> CpyCell= 2 ct_AN=  11 FNAN SNAN  47   0
<truncation> CpyCell= 2 ct_AN=  12 FNAN SNAN  47   0
<truncation> CpyCell= 2 ct_AN=  13 FNAN SNAN  45   0
<truncation> CpyCell= 2 ct_AN=  14 FNAN SNAN  45   0
<truncation> CpyCell= 2 ct_AN=  15 FNAN SNAN  45   0
<truncation> CpyCell= 2 ct_AN=  16 FNAN SNAN  45   0
<truncation> CpyCell= 2 ct_AN=  17 FNAN SNAN  45   0
<truncation> CpyCell= 2 ct_AN=  18 FNAN SNAN  47   0
<truncation> CpyCell= 2 ct_AN=  19 FNAN SNAN  47   0
<truncation> CpyCell= 2 ct_AN=  20 FNAN SNAN  48   0
     ..........
     ......

TFNAN=    5988   Average FNAN=  45.02256
TSNAN=       0   Average SNAN=   0.00000
<truncation> CpyCell= 2 ct_AN=   1 FNAN SNAN  45   0
<truncation> CpyCell= 2 ct_AN=   2 FNAN SNAN  45   0
<truncation> CpyCell= 2 ct_AN=   3 FNAN SNAN  45   0
<truncation> CpyCell= 2 ct_AN=   4 FNAN SNAN  45   0
<truncation> CpyCell= 2 ct_AN=   5 FNAN SNAN  45   0
<truncation> CpyCell= 2 ct_AN=   6 FNAN SNAN  45   0
<truncation> CpyCell= 2 ct_AN=   7 FNAN SNAN  45   0
<truncation> CpyCell= 2 ct_AN=   8 FNAN SNAN  45   0
<truncation> CpyCell= 2 ct_AN=   9 FNAN SNAN  45   0
<truncation> CpyCell= 2 ct_AN=  10 FNAN SNAN  46   0
<truncation> CpyCell= 2 ct_AN=  11 FNAN SNAN  47   0
<truncation> CpyCell= 2 ct_AN=  12 FNAN SNAN  47   0
<truncation> CpyCell= 2 ct_AN=  13 FNAN SNAN  45   0
<truncation> CpyCell= 2 ct_AN=  14 FNAN SNAN  45   0
<truncation> CpyCell= 2 ct_AN=  15 FNAN SNAN  45   0
<truncation> CpyCell= 2 ct_AN=  16 FNAN SNAN  45   0
<truncation> CpyCell= 2 ct_AN=  17 FNAN SNAN  45   0
<truncation> CpyCell= 2 ct_AN=  18 FNAN SNAN  47   0
<truncation> CpyCell= 2 ct_AN=  19 FNAN SNAN  47   0
<truncation> CpyCell= 2 ct_AN=  20 FNAN SNAN  48   0
     ..........
     ......

<Check_System> The system is slab.
lattice vectors (bohr)
A  = 37.299978480367,  0.000000000000,  0.000000000000
B  = -18.649989240184, 32.302728872609,  0.000000000000
C  =  0.000000000000,  0.000000000000, 39.684245760157
reciprocal lattice vectors (bohr^-1)
RA =  0.168450105420,  0.097254713866, -0.000000000000
RB =  0.000000000000,  0.194509427732,  0.000000000000
RC =  0.000000000000, -0.000000000000,  0.158329462658
Grid_Origin  0.051795703355  0.089732253384  0.354552887510
Cell_Volume =  47815.194201431834 (Bohr^3)
GridVol     =      0.006832303698 (Bohr^3)
Grid_Origin  0.051795703355  0.089732253384  0.354552887510
Cell_Volume =  47815.194201431834 (Bohr^3)
GridVol     =      0.006832303698 (Bohr^3)
<UCell_Box> Info. of cutoff energy and num. of grids
lattice vectors (bohr)
A  = 37.299978480367,  0.000000000000,  0.000000000000
B  = -18.649989240184, 32.302728872609,  0.000000000000
C  =  0.000000000000,  0.000000000000, 39.684245760157
reciprocal lattice vectors (bohr^-1)
RA =  0.168450105420,  0.097254713866, -0.000000000000
RB =  0.000000000000,  0.194509427732,  0.000000000000
RC =  0.000000000000, -0.000000000000,  0.158329462658
Required cutoff energy (Ryd) for 3D-grids = 300.0000
    Used cutoff energy (Ryd) for 3D-grids = 306.4547, 306.4547, 292.3957
Num. of grids of a-, b-, and c-axes = 180, 180, 216
Grid_Origin  0.051795703355  0.089732253384  0.354552887510
Cell_Volume =  47815.194201431834 (Bohr^3)
GridVol     =      0.006832303698 (Bohr^3)
Cell vectors (bohr) of the grid cell (gtv)
  gtv_a =  0.207222102669,  0.000000000000,  0.000000000000
  gtv_b = -0.103611051334,  0.179459604848,  0.000000000000
  gtv_c =  0.000000000000,  0.000000000000,  0.183723360001
  |gtv_a| =  0.207222102669
  |gtv_b| =  0.207222102419
  |gtv_c| =  0.183723360001
Num. of grids overlapping with atom    1 = 132404
Num. of grids overlapping with atom    2 = 132463
Num. of grids overlapping with atom    3 = 132431
Num. of grids overlapping with atom    4 = 132457
Num. of grids overlapping with atom    5 = 132398
Num. of grids overlapping with atom    6 = 132431
Num. of grids overlapping with atom    7 = 132401
Num. of grids overlapping with atom    8 = 132448
Num. of grids overlapping with atom    9 = 132419
Num. of grids overlapping with atom   10 = 132441
Num. of grids overlapping with atom   11 = 132421
Num. of grids overlapping with atom   12 = 132468
Num. of grids overlapping with atom   13 = 132409
Num. of grids overlapping with atom   14 = 132437
Num. of grids overlapping with atom   15 = 132400
Num. of grids overlapping with atom   16 = 132435
Num. of grids overlapping with atom   17 = 132419
Num. of grids overlapping with atom   18 = 132457
Num. of grids overlapping with atom   19 = 132435
Num. of grids overlapping with atom   20 = 132403
     ..........
     ......


*******************************************************
             SCF calculation at MD = 1                
*******************************************************

<MD= 1>  Calculation of the overlap matrix
<MD= 1>  Calculation of the nonlocal matrix
<MD= 1>  Calculation of the VNA projector matrix

******************* MD= 1  SCF= 1 *******************
<Band>  Solving the eigenvalue problem...
 KGrids1:  -0.43750  -0.31250  -0.18750  -0.06250   0.06250   0.18750   0.31250   0.43750 
 KGrids2:  -0.43750  -0.31250  -0.18750  -0.06250   0.06250   0.18750   0.31250   0.43750 
 KGrids3:   0.00000 
<Band_DFT>  Eigen, time=24.590325
<Band_DFT>  DM, time=0.000008
    1    C  MulP   1.9968  1.9968 sum   3.9936
    2    C  MulP   1.9983  1.9983 sum   3.9967
    3    C  MulP   1.9938  1.9938 sum   3.9876
    4    C  MulP   1.9989  1.9989 sum   3.9979
    5    C  MulP   1.9984  1.9984 sum   3.9969
    6    C  MulP   1.9969  1.9969 sum   3.9938
    7    C  MulP   1.9985  1.9985 sum   3.9970
    8    C  MulP   1.9984  1.9984 sum   3.9968
    9    C  MulP   1.9984  1.9984 sum   3.9967
   10    C  MulP   1.9976  1.9976 sum   3.9952
   11    C  MulP   1.9907  1.9907 sum   3.9815
   12    C  MulP   1.9993  1.9993 sum   3.9987
   13    C  MulP   1.9956  1.9956 sum   3.9912
   14    C  MulP   1.9989  1.9989 sum   3.9978
   15    C  MulP   1.9985  1.9985 sum   3.9970
   16    C  MulP   1.9969  1.9969 sum   3.9937
   17    C  MulP   1.9983  1.9983 sum   3.9966
   18    C  MulP   1.9915  1.9915 sum   3.9829
   19    C  MulP   1.9954  1.9954 sum   3.9907
   20    C  MulP   1.9708  1.9708 sum   3.9417
     ..........
     ......

 Sum of MulP: up   =   270.00000 down          =   270.00000
              total=   540.00000 ideal(neutral)=   540.00000
<DFT>  Total Spin Moment (muB) =  0.000000000000
<DFT>  Mixing_weight= 0.050000000000
<DFT>  Uele   = -224.211440958855  dUele     =   1.000000000000
<DFT>  NormRD =    1.000000000000  Criterion =   0.000000010000

******************* MD= 1  SCF= 2 *******************
<Poisson>  Poisson's equation using FFT...
<Set_Hamiltonian>  Hamiltonian matrix for VNA+dVH+Vxc...
<Band>  Solving the eigenvalue problem...
 KGrids1:  -0.43750  -0.31250  -0.18750  -0.06250   0.06250   0.18750   0.31250   0.43750 
 KGrids2:  -0.43750  -0.31250  -0.18750  -0.06250   0.06250   0.18750   0.31250   0.43750 
 KGrids3:   0.00000 
<Band_DFT>  Eigen, time=14.258983
<Band_DFT>  DM, time=0.000000
    1    C  MulP   1.9968  1.9968 sum   3.9936
    2    C  MulP   1.9983  1.9983 sum   3.9967
    3    C  MulP   1.9938  1.9938 sum   3.9876
    4    C  MulP   1.9989  1.9989 sum   3.9979
    5    C  MulP   1.9984  1.9984 sum   3.9969
    6    C  MulP   1.9969  1.9969 sum   3.9938
    7    C  MulP   1.9985  1.9985 sum   3.9970
    8    C  MulP   1.9984  1.9984 sum   3.9968
    9    C  MulP   1.9984  1.9984 sum   3.9967
   10    C  MulP   1.9976  1.9976 sum   3.9952
   11    C  MulP   1.9907  1.9907 sum   3.9815
   12    C  MulP   1.9993  1.9993 sum   3.9987
   13    C  MulP   1.9956  1.9956 sum   3.9912
   14    C  MulP   1.9989  1.9989 sum   3.9978
   15    C  MulP   1.9985  1.9985 sum   3.9970
   16    C  MulP   1.9969  1.9969 sum   3.9937
   17    C  MulP   1.9983  1.9983 sum   3.9966
   18    C  MulP   1.9915  1.9915 sum   3.9829
   19    C  MulP   1.9954  1.9954 sum   3.9907
   20    C  MulP   1.9708  1.9708 sum   3.9417
     ..........
     ......

 Sum of MulP: up   =   270.00000 down          =   270.00000
              total=   540.00000 ideal(neutral)=   540.00000
<DFT>  Total Spin Moment (muB) =  0.000000000000
<DFT>  Mixing_weight= 0.010000000000
<DFT>  Uele   = -224.211440958855  dUele     =   0.000000000000
<DFT>  NormRD =   10.906889174554  Criterion =   0.000000010000

******************* MD= 1  SCF= 3 *******************
<Poisson>  Poisson's equation using FFT...
<Set_Hamiltonian>  Hamiltonian matrix for VNA+dVH+Vxc...
<Band>  Solving the eigenvalue problem...
 KGrids1:  -0.43750  -0.31250  -0.18750  -0.06250   0.06250   0.18750   0.31250   0.43750 
 KGrids2:  -0.43750  -0.31250  -0.18750  -0.06250   0.06250   0.18750   0.31250   0.43750 
 KGrids3:   0.00000 
<Band_DFT>  Eigen, time=14.246883
<Band_DFT>  DM, time=0.000000
    1    C  MulP   1.9968  1.9968 sum   3.9936
    2    C  MulP   1.9983  1.9983 sum   3.9966
    3    C  MulP   1.9939  1.9939 sum   3.9878
    4    C  MulP   1.9989  1.9989 sum   3.9978
    5    C  MulP   1.9984  1.9984 sum   3.9969
    6    C  MulP   1.9969  1.9969 sum   3.9939
    7    C  MulP   1.9985  1.9985 sum   3.9970
    8    C  MulP   1.9984  1.9984 sum   3.9968
    9    C  MulP   1.9983  1.9983 sum   3.9967
   10    C  MulP   1.9976  1.9976 sum   3.9951
   11    C  MulP   1.9909  1.9909 sum   3.9817
   12    C  MulP   1.9993  1.9993 sum   3.9986
   13    C  MulP   1.9957  1.9957 sum   3.9913
   14    C  MulP   1.9989  1.9989 sum   3.9978
   15    C  MulP   1.9985  1.9985 sum   3.9970
   16    C  MulP   1.9969  1.9969 sum   3.9938
   17    C  MulP   1.9983  1.9983 sum   3.9966
   18    C  MulP   1.9916  1.9916 sum   3.9831
   19    C  MulP   1.9956  1.9956 sum   3.9911
   20    C  MulP   1.9713  1.9713 sum   3.9427
     ..........
     ......

 Sum of MulP: up   =   270.00000 down          =   270.00000
              total=   540.00000 ideal(neutral)=   540.00000
<DFT>  Total Spin Moment (muB) =  0.000000000000
<DFT>  Mixing_weight= 0.300000000000
<DFT>  Uele   = -224.581403368405  dUele     =   0.369962409550
<DFT>  NormRD =   10.758966795804  Criterion =   0.000000010000

******************* MD= 1  SCF= 4 *******************
<Poisson>  Poisson's equation using FFT...
<Set_Hamiltonian>  Hamiltonian matrix for VNA+dVH+Vxc...
<Band>  Solving the eigenvalue problem...
 KGrids1:  -0.43750  -0.31250  -0.18750  -0.06250   0.06250   0.18750   0.31250   0.43750 
 KGrids2:  -0.43750  -0.31250  -0.18750  -0.06250   0.06250   0.18750   0.31250   0.43750 
 KGrids3:   0.00000 
<Band_DFT>  Eigen, time=14.219782
<Band_DFT>  DM, time=0.000000
    1    C  MulP   1.9979  1.9979 sum   3.9958
    2    C  MulP   1.9981  1.9981 sum   3.9961
    3    C  MulP   1.9978  1.9978 sum   3.9957
    4    C  MulP   1.9982  1.9982 sum   3.9965
    5    C  MulP   1.9987  1.9987 sum   3.9974
    6    C  MulP   1.9983  1.9983 sum   3.9966
    7    C  MulP   1.9987  1.9987 sum   3.9974
    8    C  MulP   1.9984  1.9984 sum   3.9967
    9    C  MulP   1.9985  1.9985 sum   3.9969
   10    C  MulP   1.9972  1.9972 sum   3.9945
   11    C  MulP   1.9958  1.9958 sum   3.9915
   12    C  MulP   1.9997  1.9997 sum   3.9995
   13    C  MulP   1.9975  1.9975 sum   3.9950
   14    C  MulP   1.9986  1.9986 sum   3.9972
   15    C  MulP   1.9988  1.9988 sum   3.9975
   16    C  MulP   1.9982  1.9982 sum   3.9965
   17    C  MulP   1.9984  1.9984 sum   3.9968
   18    C  MulP   1.9949  1.9949 sum   3.9899
   19    C  MulP   2.0036  2.0036 sum   4.0072
   20    C  MulP   1.9907  1.9907 sum   3.9814
     ..........
     ......

 Sum of MulP: up   =   270.00000 down          =   270.00000
              total=   540.00000 ideal(neutral)=   540.00000
<DFT>  Total Spin Moment (muB) =  0.000000000000
<DFT>  Mixing_weight= 0.300000000000
<DFT>  Uele   = -235.679380979082  dUele     =  11.097977610676
<DFT>  NormRD =    6.614627225487  Criterion =   0.000000010000

******************* MD= 1  SCF= 5 *******************
<Poisson>  Poisson's equation using FFT...
<Set_Hamiltonian>  Hamiltonian matrix for VNA+dVH+Vxc...
<Band>  Solving the eigenvalue problem...
 KGrids1:  -0.43750  -0.31250  -0.18750  -0.06250   0.06250   0.18750   0.31250   0.43750 
 KGrids2:  -0.43750  -0.31250  -0.18750  -0.06250   0.06250   0.18750   0.31250   0.43750 
 KGrids3:   0.00000 
<Band_DFT>  Eigen, time=14.215967
<Band_DFT>  DM, time=0.000000
    1    C  MulP   1.9989  1.9989 sum   3.9977
    2    C  MulP   1.9992  1.9992 sum   3.9983
    3    C  MulP   1.9990  1.9990 sum   3.9980
    4    C  MulP   1.9990  1.9990 sum   3.9980
    5    C  MulP   1.9993  1.9993 sum   3.9985
    6    C  MulP   1.9991  1.9991 sum   3.9982
    7    C  MulP   1.9991  1.9991 sum   3.9983
    8    C  MulP   1.9989  1.9989 sum   3.9977
    9    C  MulP   1.9992  1.9992 sum   3.9984
   10    C  MulP   1.9983  1.9983 sum   3.9967
   11    C  MulP   1.9982  1.9982 sum   3.9964
   12    C  MulP   2.0000  2.0000 sum   4.0000
   13    C  MulP   1.9989  1.9989 sum   3.9978
   14    C  MulP   1.9991  1.9991 sum   3.9982
   15    C  MulP   1.9992  1.9992 sum   3.9984
   16    C  MulP   1.9990  1.9990 sum   3.9981
   17    C  MulP   1.9991  1.9991 sum   3.9983
   18    C  MulP   1.9977  1.9977 sum   3.9953
   19    C  MulP   2.0052  2.0052 sum   4.0103
   20    C  MulP   1.9944  1.9944 sum   3.9888
     ..........
     ......

 Sum of MulP: up   =   270.00000 down          =   270.00000
              total=   540.00000 ideal(neutral)=   540.00000
<DFT>  Total Spin Moment (muB) =  0.000000000000
<DFT>  Mixing_weight= 0.300000000000
<DFT>  Uele   = -243.398682202014  dUele     =   7.719301222933
<DFT>  NormRD =    4.478792688121  Criterion =   0.000000010000

******************* MD= 1  SCF= 6 *******************
<Poisson>  Poisson's equation using FFT...
<Set_Hamiltonian>  Hamiltonian matrix for VNA+dVH+Vxc...
<Band>  Solving the eigenvalue problem...
 KGrids1:  -0.43750  -0.31250  -0.18750  -0.06250   0.06250   0.18750   0.31250   0.43750 
 KGrids2:  -0.43750  -0.31250  -0.18750  -0.06250   0.06250   0.18750   0.31250   0.43750 
 KGrids3:   0.00000 
<Band_DFT>  Eigen, time=14.211997
<Band_DFT>  DM, time=0.000000
    1    C  MulP   1.9990  1.9990 sum   3.9980
    2    C  MulP   1.9994  1.9994 sum   3.9987
    3    C  MulP   1.9987  1.9987 sum   3.9975
    4    C  MulP   1.9993  1.9993 sum   3.9985
    5    C  MulP   1.9996  1.9996 sum   3.9991
    6    C  MulP   1.9993  1.9993 sum   3.9985
    7    C  MulP   1.9993  1.9993 sum   3.9987
    8    C  MulP   1.9991  1.9991 sum   3.9982
    9    C  MulP   1.9994  1.9994 sum   3.9989
   10    C  MulP   1.9985  1.9985 sum   3.9970
   11    C  MulP   1.9978  1.9978 sum   3.9956
   12    C  MulP   2.0000  2.0000 sum   4.0001
   13    C  MulP   1.9992  1.9992 sum   3.9983
   14    C  MulP   1.9994  1.9994 sum   3.9988
   15    C  MulP   1.9994  1.9994 sum   3.9988
   16    C  MulP   1.9992  1.9992 sum   3.9984
   17    C  MulP   1.9994  1.9994 sum   3.9987
   18    C  MulP   1.9979  1.9979 sum   3.9958
   19    C  MulP   2.0041  2.0041 sum   4.0081
   20    C  MulP   1.9938  1.9938 sum   3.9876
     ..........
     ......

 Sum of MulP: up   =   270.00000 down          =   270.00000
              total=   540.00000 ideal(neutral)=   540.00000
<DFT>  Total Spin Moment (muB) =  0.000000000000
<DFT>  Mixing_weight= 0.300000000000
<DFT>  Uele   = -248.541108798187  dUele     =   5.142426596173
<DFT>  NormRD =    3.049832875166  Criterion =   0.000000010000

******************* MD= 1  SCF= 7 *******************
<Poisson>  Poisson's equation using FFT...
<Set_Hamiltonian>  Hamiltonian matrix for VNA+dVH+Vxc...
<Band>  Solving the eigenvalue problem...
 KGrids1:  -0.43750  -0.31250  -0.18750  -0.06250   0.06250   0.18750   0.31250   0.43750 
 KGrids2:  -0.43750  -0.31250  -0.18750  -0.06250   0.06250   0.18750   0.31250   0.43750 
 KGrids3:   0.00000 
<Band_DFT>  Eigen, time=14.229338
<Band_DFT>  DM, time=0.000000
    1    C  MulP   1.9990  1.9990 sum   3.9980
    2    C  MulP   1.9994  1.9994 sum   3.9988
    3    C  MulP   1.9987  1.9987 sum   3.9974
    4    C  MulP   1.9993  1.9993 sum   3.9987
    5    C  MulP   1.9997  1.9997 sum   3.9993
    6    C  MulP   1.9993  1.9993 sum   3.9987
    7    C  MulP   1.9994  1.9994 sum   3.9989
    8    C  MulP   1.9992  1.9992 sum   3.9984
    9    C  MulP   1.9995  1.9995 sum   3.9990
   10    C  MulP   1.9985  1.9985 sum   3.9970
   11    C  MulP   1.9976  1.9976 sum   3.9953
   12    C  MulP   2.0001  2.0001 sum   4.0001
   13    C  MulP   1.9992  1.9992 sum   3.9985
   14    C  MulP   1.9995  1.9995 sum   3.9990
   15    C  MulP   1.9995  1.9995 sum   3.9990
   16    C  MulP   1.9993  1.9993 sum   3.9985
   17    C  MulP   1.9994  1.9994 sum   3.9989
   18    C  MulP   1.9978  1.9978 sum   3.9957
   19    C  MulP   2.0037  2.0037 sum   4.0074
   20    C  MulP   1.9936  1.9936 sum   3.9872
     ..........
     ......

 Sum of MulP: up   =   270.00000 down          =   270.00000
              total=   540.00000 ideal(neutral)=   540.00000
<DFT>  Total Spin Moment (muB) =  0.000000000000
<DFT>  Mixing_weight= 0.300000000000
<DFT>  Uele   = -251.981609607192  dUele     =   3.440500809005
<DFT>  NormRD =    2.088546912813  Criterion =   0.000000010000

******************* MD= 1  SCF= 8 *******************
<Poisson>  Poisson's equation using FFT...
<Set_Hamiltonian>  Hamiltonian matrix for VNA+dVH+Vxc...
<Band>  Solving the eigenvalue problem...
 KGrids1:  -0.43750  -0.31250  -0.18750  -0.06250   0.06250   0.18750   0.31250   0.43750 
 KGrids2:  -0.43750  -0.31250  -0.18750  -0.06250   0.06250   0.18750   0.31250   0.43750 
 KGrids3:   0.00000 
<Band_DFT>  Eigen, time=14.226116
<Band_DFT>  DM, time=0.000000
    1    C  MulP   1.9991  1.9991 sum   3.9981
    2    C  MulP   1.9994  1.9994 sum   3.9989
    3    C  MulP   1.9987  1.9987 sum   3.9974
    4    C  MulP   1.9994  1.9994 sum   3.9987
    5    C  MulP   1.9997  1.9997 sum   3.9994
    6    C  MulP   1.9994  1.9994 sum   3.9987
    7    C  MulP   1.9995  1.9995 sum   3.9990
    8    C  MulP   1.9992  1.9992 sum   3.9985
    9    C  MulP   1.9996  1.9996 sum   3.9991
   10    C  MulP   1.9986  1.9986 sum   3.9971
   11    C  MulP   1.9976  1.9976 sum   3.9952
   12    C  MulP   2.0001  2.0001 sum   4.0001
   13    C  MulP   1.9993  1.9993 sum   3.9986
   14    C  MulP   1.9996  1.9996 sum   3.9991
   15    C  MulP   1.9996  1.9996 sum   3.9992
   16    C  MulP   1.9993  1.9993 sum   3.9986
   17    C  MulP   1.9995  1.9995 sum   3.9990
   18    C  MulP   1.9979  1.9979 sum   3.9957
   19    C  MulP   2.0035  2.0035 sum   4.0071
   20    C  MulP   1.9934  1.9934 sum   3.9868
     ..........
     ......

 Sum of MulP: up   =   270.00000 down          =   270.00000
              total=   540.00000 ideal(neutral)=   540.00000
<DFT>  Total Spin Moment (muB) =  0.000000000000
<DFT>  Mixing_weight= 0.300000000000
<DFT>  Uele   = -254.343556431328  dUele     =   2.361946824137
<DFT>  NormRD =    1.436391792121  Criterion =   0.000000010000

******************* MD= 1  SCF= 9 *******************
<Poisson>  Poisson's equation using FFT...
<Set_Hamiltonian>  Hamiltonian matrix for VNA+dVH+Vxc...
<Band>  Solving the eigenvalue problem...
 KGrids1:  -0.43750  -0.31250  -0.18750  -0.06250   0.06250   0.18750   0.31250   0.43750 
 KGrids2:  -0.43750  -0.31250  -0.18750  -0.06250   0.06250   0.18750   0.31250   0.43750 
 KGrids3:   0.00000 
<Band_DFT>  Eigen, time=14.213660
<Band_DFT>  DM, time=0.000001
    1    C  MulP   1.9991  1.9991 sum   3.9982
    2    C  MulP   1.9995  1.9995 sum   3.9989
    3    C  MulP   1.9987  1.9987 sum   3.9974
    4    C  MulP   1.9994  1.9994 sum   3.9988
    5    C  MulP   1.9997  1.9997 sum   3.9995
    6    C  MulP   1.9994  1.9994 sum   3.9988
    7    C  MulP   1.9995  1.9995 sum   3.9991
    8    C  MulP   1.9993  1.9993 sum   3.9986
    9    C  MulP   1.9996  1.9996 sum   3.9992
   10    C  MulP   1.9986  1.9986 sum   3.9972
   11    C  MulP   1.9976  1.9976 sum   3.9952
   12    C  MulP   2.0001  2.0001 sum   4.0001
   13    C  MulP   1.9993  1.9993 sum   3.9986
   14    C  MulP   1.9996  1.9996 sum   3.9992
   15    C  MulP   1.9996  1.9996 sum   3.9992
   16    C  MulP   1.9993  1.9993 sum   3.9987
   17    C  MulP   1.9995  1.9995 sum   3.9991
   18    C  MulP   1.9979  1.9979 sum   3.9957
   19    C  MulP   2.0034  2.0034 sum   4.0069
   20    C  MulP   1.9933  1.9933 sum   3.9865
     ..........
     ......

 Sum of MulP: up   =   270.00000 down          =   270.00000
              total=   540.00000 ideal(neutral)=   540.00000
<DFT>  Total Spin Moment (muB) =  0.000000000000
<DFT>  Mixing_weight= 0.300000000000
<DFT>  Uele   = -256.012388170511  dUele     =   1.668831739183
<DFT>  NormRD =    0.991701816069  Criterion =   0.000000010000

******************* MD= 1  SCF=10 *******************
<Poisson>  Poisson's equation using FFT...
<Set_Hamiltonian>  Hamiltonian matrix for VNA+dVH+Vxc...
<Band>  Solving the eigenvalue problem...
 KGrids1:  -0.43750  -0.31250  -0.18750  -0.06250   0.06250   0.18750   0.31250   0.43750 
 KGrids2:  -0.43750  -0.31250  -0.18750  -0.06250   0.06250   0.18750   0.31250   0.43750 
 KGrids3:   0.00000 
<Band_DFT>  Eigen, time=14.194741
<Band_DFT>  DM, time=0.000000
    1    C  MulP   1.9991  1.9991 sum   3.9982
    2    C  MulP   1.9995  1.9995 sum   3.9989
    3    C  MulP   1.9987  1.9987 sum   3.9974
    4    C  MulP   1.9994  1.9994 sum   3.9988
    5    C  MulP   1.9997  1.9997 sum   3.9995
    6    C  MulP   1.9994  1.9994 sum   3.9988
    7    C  MulP   1.9996  1.9996 sum   3.9991
    8    C  MulP   1.9993  1.9993 sum   3.9986
    9    C  MulP   1.9996  1.9996 sum   3.9992
   10    C  MulP   1.9986  1.9986 sum   3.9972
   11    C  MulP   1.9976  1.9976 sum   3.9952
   12    C  MulP   2.0001  2.0001 sum   4.0002
   13    C  MulP   1.9993  1.9993 sum   3.9987
   14    C  MulP   1.9996  1.9996 sum   3.9992
   15    C  MulP   1.9996  1.9996 sum   3.9993
   16    C  MulP   1.9994  1.9994 sum   3.9987
   17    C  MulP   1.9995  1.9995 sum   3.9991
   18    C  MulP   1.9979  1.9979 sum   3.9958
   19    C  MulP   2.0034  2.0034 sum   4.0068
   20    C  MulP   1.9932  1.9932 sum   3.9863
     ..........
     ......

 Sum of MulP: up   =   270.00000 down          =   270.00000
              total=   540.00000 ideal(neutral)=   540.00000
<DFT>  Total Spin Moment (muB) =  0.000000000000
<DFT>  Mixing_weight= 0.300000000000
<DFT>  Uele   = -257.227673946606  dUele     =   1.215285776095
<DFT>  NormRD =    0.687055353031  Criterion =   0.000000010000

******************* MD= 1  SCF=11 *******************
<Poisson>  Poisson's equation using FFT...
<Set_Hamiltonian>  Hamiltonian matrix for VNA+dVH+Vxc...
<Band>  Solving the eigenvalue problem...
 KGrids1:  -0.43750  -0.31250  -0.18750  -0.06250   0.06250   0.18750   0.31250   0.43750 
 KGrids2:  -0.43750  -0.31250  -0.18750  -0.06250   0.06250   0.18750   0.31250   0.43750 
 KGrids3:   0.00000 
<Band_DFT>  Eigen, time=14.185599
<Band_DFT>  DM, time=0.000001
    1    C  MulP   1.9991  1.9991 sum   3.9983
    2    C  MulP   1.9995  1.9995 sum   3.9990
    3    C  MulP   1.9987  1.9987 sum   3.9974
    4    C  MulP   1.9994  1.9994 sum   3.9988
    5    C  MulP   1.9998  1.9998 sum   3.9995
    6    C  MulP   1.9994  1.9994 sum   3.9989
    7    C  MulP   1.9996  1.9996 sum   3.9992
    8    C  MulP   1.9993  1.9993 sum   3.9986
    9    C  MulP   1.9996  1.9996 sum   3.9992
   10    C  MulP   1.9986  1.9986 sum   3.9972
   11    C  MulP   1.9976  1.9976 sum   3.9952
   12    C  MulP   2.0001  2.0001 sum   4.0002
   13    C  MulP   1.9993  1.9993 sum   3.9987
   14    C  MulP   1.9996  1.9996 sum   3.9993
   15    C  MulP   1.9997  1.9997 sum   3.9993
   16    C  MulP   1.9994  1.9994 sum   3.9987
   17    C  MulP   1.9996  1.9996 sum   3.9991
   18    C  MulP   1.9979  1.9979 sum   3.9958
   19    C  MulP   2.0034  2.0034 sum   4.0068
   20    C  MulP   1.9931  1.9931 sum   3.9862
     ..........
     ......

 Sum of MulP: up   =   270.00000 down          =   270.00000
              total=   540.00000 ideal(neutral)=   540.00000
<DFT>  Total Spin Moment (muB) =  0.000000000000
<DFT>  Mixing_weight= 0.300000000000
<DFT>  Uele   = -258.139670339077  dUele     =   0.911996392470
<DFT>  NormRD =    0.477534429390  Criterion =   0.000000010000

******************* MD= 1  SCF=12 *******************
<Poisson>  Poisson's equation using FFT...
<Set_Hamiltonian>  Hamiltonian matrix for VNA+dVH+Vxc...
<Band>  Solving the eigenvalue problem...
 KGrids1:  -0.43750  -0.31250  -0.18750  -0.06250   0.06250   0.18750   0.31250   0.43750 
 KGrids2:  -0.43750  -0.31250  -0.18750  -0.06250   0.06250   0.18750   0.31250   0.43750 
 KGrids3:   0.00000 
<Band_DFT>  Eigen, time=14.205645
<Band_DFT>  DM, time=0.000000
    1    C  MulP   1.9991  1.9991 sum   3.9983
    2    C  MulP   1.9995  1.9995 sum   3.9990
    3    C  MulP   1.9987  1.9987 sum   3.9974
    4    C  MulP   1.9994  1.9994 sum   3.9988
    5    C  MulP   1.9998  1.9998 sum   3.9995
    6    C  MulP   1.9994  1.9994 sum   3.9989
    7    C  MulP   1.9996  1.9996 sum   3.9992
    8    C  MulP   1.9993  1.9993 sum   3.9987
    9    C  MulP   1.9996  1.9996 sum   3.9993
   10    C  MulP   1.9986  1.9986 sum   3.9973
   11    C  MulP   1.9976  1.9976 sum   3.9952
   12    C  MulP   2.0001  2.0001 sum   4.0002
   13    C  MulP   1.9993  1.9993 sum   3.9987
   14    C  MulP   1.9996  1.9996 sum   3.9993
   15    C  MulP   1.9997  1.9997 sum   3.9993
   16    C  MulP   1.9994  1.9994 sum   3.9987
   17    C  MulP   1.9996  1.9996 sum   3.9992
   18    C  MulP   1.9979  1.9979 sum   3.9958
   19    C  MulP   2.0034  2.0034 sum   4.0068
   20    C  MulP   1.9931  1.9931 sum   3.9861
     ..........
     ......

 Sum of MulP: up   =   270.00000 down          =   270.00000
              total=   540.00000 ideal(neutral)=   540.00000
<DFT>  Total Spin Moment (muB) =  0.000000000000
<DFT>  Mixing_weight= 0.300000000000
<DFT>  Uele   = -258.843795999661  dUele     =   0.704125660585
<DFT>  NormRD =    0.333004516353  Criterion =   0.000000010000

******************* MD= 1  SCF=13 *******************
<Poisson>  Poisson's equation using FFT...
<Set_Hamiltonian>  Hamiltonian matrix for VNA+dVH+Vxc...
<Band>  Solving the eigenvalue problem...
 KGrids1:  -0.43750  -0.31250  -0.18750  -0.06250   0.06250   0.18750   0.31250   0.43750 
 KGrids2:  -0.43750  -0.31250  -0.18750  -0.06250   0.06250   0.18750   0.31250   0.43750 
 KGrids3:   0.00000 
<Band_DFT>  Eigen, time=14.240678
<Band_DFT>  DM, time=0.000000
    1    C  MulP   1.9991  1.9991 sum   3.9983
    2    C  MulP   1.9995  1.9995 sum   3.9990
    3    C  MulP   1.9987  1.9987 sum   3.9975
    4    C  MulP   1.9994  1.9994 sum   3.9989
    5    C  MulP   1.9998  1.9998 sum   3.9996
    6    C  MulP   1.9994  1.9994 sum   3.9989
    7    C  MulP   1.9996  1.9996 sum   3.9992
    8    C  MulP   1.9993  1.9993 sum   3.9987
    9    C  MulP   1.9996  1.9996 sum   3.9993
   10    C  MulP   1.9986  1.9986 sum   3.9973
   11    C  MulP   1.9976  1.9976 sum   3.9952
   12    C  MulP   2.0001  2.0001 sum   4.0002
   13    C  MulP   1.9994  1.9994 sum   3.9987
   14    C  MulP   1.9996  1.9996 sum   3.9993
   15    C  MulP   1.9997  1.9997 sum   3.9993
   16    C  MulP   1.9994  1.9994 sum   3.9988
   17    C  MulP   1.9996  1.9996 sum   3.9992
   18    C  MulP   1.9979  1.9979 sum   3.9958
   19    C  MulP   2.0034  2.0034 sum   4.0068
   20    C  MulP   1.9930  1.9930 sum   3.9861
     ..........
     ......

 Sum of MulP: up   =   270.00000 down          =   270.00000
              total=   540.00000 ideal(neutral)=   540.00000
<DFT>  Total Spin Moment (muB) =  0.000000000000
<DFT>  Mixing_weight= 0.300000000000
<DFT>  Uele   = -259.401658214768  dUele     =   0.557862215107
<DFT>  NormRD =    0.233071829190  Criterion =   0.000000010000

******************* MD= 1  SCF=14 *******************
<Poisson>  Poisson's equation using FFT...
<Set_Hamiltonian>  Hamiltonian matrix for VNA+dVH+Vxc...
<Band>  Solving the eigenvalue problem...
 KGrids1:  -0.43750  -0.31250  -0.18750  -0.06250   0.06250   0.18750   0.31250   0.43750 
 KGrids2:  -0.43750  -0.31250  -0.18750  -0.06250   0.06250   0.18750   0.31250   0.43750 
 KGrids3:   0.00000 
<Band_DFT>  Eigen, time=14.249059
<Band_DFT>  DM, time=0.000000
    1    C  MulP   1.9991  1.9991 sum   3.9983
    2    C  MulP   1.9995  1.9995 sum   3.9990
    3    C  MulP   1.9987  1.9987 sum   3.9975
    4    C  MulP   1.9994  1.9994 sum   3.9989
    5    C  MulP   1.9998  1.9998 sum   3.9996
    6    C  MulP   1.9994  1.9994 sum   3.9989
    7    C  MulP   1.9996  1.9996 sum   3.9992
    8    C  MulP   1.9993  1.9993 sum   3.9987
    9    C  MulP   1.9996  1.9996 sum   3.9993
   10    C  MulP   1.9986  1.9986 sum   3.9973
   11    C  MulP   1.9976  1.9976 sum   3.9952
   12    C  MulP   2.0001  2.0001 sum   4.0002
   13    C  MulP   1.9994  1.9994 sum   3.9987
   14    C  MulP   1.9997  1.9997 sum   3.9993
   15    C  MulP   1.9997  1.9997 sum   3.9993
   16    C  MulP   1.9994  1.9994 sum   3.9988
   17    C  MulP   1.9996  1.9996 sum   3.9992
   18    C  MulP   1.9979  1.9979 sum   3.9958
   19    C  MulP   2.0034  2.0034 sum   4.0068
   20    C  MulP   1.9930  1.9930 sum   3.9860
     ..........
     ......

 Sum of MulP: up   =   270.00000 down          =   270.00000
              total=   540.00000 ideal(neutral)=   540.00000
<DFT>  Total Spin Moment (muB) =  0.000000000000
<DFT>  Mixing_weight= 0.300000000000
<DFT>  Uele   = -259.853673776693  dUele     =   0.452015561924
<DFT>  NormRD =    0.163855964622  Criterion =   0.000000010000

******************* MD= 1  SCF=15 *******************
<Poisson>  Poisson's equation using FFT...
<Set_Hamiltonian>  Hamiltonian matrix for VNA+dVH+Vxc...
<Band>  Solving the eigenvalue problem...
 KGrids1:  -0.43750  -0.31250  -0.18750  -0.06250   0.06250   0.18750   0.31250   0.43750 
 KGrids2:  -0.43750  -0.31250  -0.18750  -0.06250   0.06250   0.18750   0.31250   0.43750 
 KGrids3:   0.00000 
<Band_DFT>  Eigen, time=14.255313
<Band_DFT>  DM, time=0.000000
    1    C  MulP   1.9992  1.9992 sum   3.9983
    2    C  MulP   1.9995  1.9995 sum   3.9990
    3    C  MulP   1.9987  1.9987 sum   3.9975
    4    C  MulP   1.9994  1.9994 sum   3.9989
    5    C  MulP   1.9998  1.9998 sum   3.9996
    6    C  MulP   1.9995  1.9995 sum   3.9989
    7    C  MulP   1.9996  1.9996 sum   3.9992
    8    C  MulP   1.9993  1.9993 sum   3.9987
    9    C  MulP   1.9997  1.9997 sum   3.9993
   10    C  MulP   1.9986  1.9986 sum   3.9973
   11    C  MulP   1.9976  1.9976 sum   3.9952
   12    C  MulP   2.0001  2.0001 sum   4.0002
   13    C  MulP   1.9994  1.9994 sum   3.9987
   14    C  MulP   1.9997  1.9997 sum   3.9993
   15    C  MulP   1.9997  1.9997 sum   3.9994
   16    C  MulP   1.9994  1.9994 sum   3.9988
   17    C  MulP   1.9996  1.9996 sum   3.9992
   18    C  MulP   1.9979  1.9979 sum   3.9958
   19    C  MulP   2.0034  2.0034 sum   4.0068
   20    C  MulP   1.9930  1.9930 sum   3.9860
     ..........
     ......

 Sum of MulP: up   =   270.00000 down          =   270.00000
              total=   540.00000 ideal(neutral)=   540.00000
<DFT>  Total Spin Moment (muB) =  0.000000000000
<DFT>  Mixing_weight= 0.030000000000
<DFT>  Uele   = -260.226879288405  dUele     =   0.373205511712
<DFT>  NormRD =    0.117100116963  Criterion =   0.000000010000

******************* MD= 1  SCF=16 *******************
<Poisson>  Poisson's equation using FFT...
<Set_Hamiltonian>  Hamiltonian matrix for VNA+dVH+Vxc...
<Band>  Solving the eigenvalue problem...
 KGrids1:  -0.43750  -0.31250  -0.18750  -0.06250   0.06250   0.18750   0.31250   0.43750 
 KGrids2:  -0.43750  -0.31250  -0.18750  -0.06250   0.06250   0.18750   0.31250   0.43750 
 KGrids3:   0.00000 
<Band_DFT>  Eigen, time=14.555336
<Band_DFT>  DM, time=0.000000
    1    C  MulP   1.9992  1.9992 sum   3.9984
    2    C  MulP   1.9996  1.9996 sum   3.9991
    3    C  MulP   1.9988  1.9988 sum   3.9976
    4    C  MulP   1.9995  1.9995 sum   3.9989
    5    C  MulP   1.9998  1.9998 sum   3.9997
    6    C  MulP   1.9995  1.9995 sum   3.9990
    7    C  MulP   1.9997  1.9997 sum   3.9993
    8    C  MulP   1.9994  1.9994 sum   3.9988
    9    C  MulP   1.9997  1.9997 sum   3.9994
   10    C  MulP   1.9986  1.9986 sum   3.9973
   11    C  MulP   1.9976  1.9976 sum   3.9952
   12    C  MulP   2.0000  2.0000 sum   4.0001
   13    C  MulP   1.9994  1.9994 sum   3.9988
   14    C  MulP   1.9997  1.9997 sum   3.9994
   15    C  MulP   1.9997  1.9997 sum   3.9995
   16    C  MulP   1.9995  1.9995 sum   3.9989
   17    C  MulP   1.9996  1.9996 sum   3.9993
   18    C  MulP   1.9979  1.9979 sum   3.9959
   19    C  MulP   2.0034  2.0034 sum   4.0068
   20    C  MulP   1.9929  1.9929 sum   3.9859
     ..........
     ......

 Sum of MulP: up   =   270.00000 down          =   270.00000
              total=   540.00000 ideal(neutral)=   540.00000
<DFT>  Total Spin Moment (muB) =  0.000000000000
<DFT>  Mixing_weight= 0.030000000000
<DFT>  Uele   = -262.392589587317  dUele     =   2.165710298912
<DFT>  NormRD =    0.016133188964  Criterion =   0.000000010000

******************* MD= 1  SCF=17 *******************
<Poisson>  Poisson's equation using FFT...
<Set_Hamiltonian>  Hamiltonian matrix for VNA+dVH+Vxc...
<Band>  Solving the eigenvalue problem...
 KGrids1:  -0.43750  -0.31250  -0.18750  -0.06250   0.06250   0.18750   0.31250   0.43750 
 KGrids2:  -0.43750  -0.31250  -0.18750  -0.06250   0.06250   0.18750   0.31250   0.43750 
 KGrids3:   0.00000 
<Band_DFT>  Eigen, time=14.233655
<Band_DFT>  DM, time=0.000000
    1    C  MulP   1.9991  1.9991 sum   3.9981
    2    C  MulP   1.9995  1.9995 sum   3.9989
    3    C  MulP   1.9987  1.9987 sum   3.9973
    4    C  MulP   1.9994  1.9994 sum   3.9988
    5    C  MulP   1.9997  1.9997 sum   3.9995
    6    C  MulP   1.9994  1.9994 sum   3.9987
    7    C  MulP   1.9995  1.9995 sum   3.9991
    8    C  MulP   1.9993  1.9993 sum   3.9985
    9    C  MulP   1.9996  1.9996 sum   3.9992
   10    C  MulP   1.9986  1.9986 sum   3.9973
   11    C  MulP   1.9975  1.9975 sum   3.9951
   12    C  MulP   2.0002  2.0002 sum   4.0004
   13    C  MulP   1.9994  1.9994 sum   3.9987
   14    C  MulP   1.9996  1.9996 sum   3.9992
   15    C  MulP   1.9996  1.9996 sum   3.9992
   16    C  MulP   1.9993  1.9993 sum   3.9986
   17    C  MulP   1.9996  1.9996 sum   3.9991
   18    C  MulP   1.9979  1.9979 sum   3.9957
   19    C  MulP   2.0035  2.0035 sum   4.0070
   20    C  MulP   1.9931  1.9931 sum   3.9863
     ..........
     ......

 Sum of MulP: up   =   270.00000 down          =   270.00000
              total=   540.00000 ideal(neutral)=   540.00000
<DFT>  Total Spin Moment (muB) =  0.000000000000
<DFT>  Mixing_weight= 0.030000000000
<DFT>  Uele   = -262.582723551945  dUele     =   0.190133964628
<DFT>  NormRD =    0.020341700681  Criterion =   0.000000010000

******************* MD= 1  SCF=18 *******************
<Poisson>  Poisson's equation using FFT...
<Set_Hamiltonian>  Hamiltonian matrix for VNA+dVH+Vxc...
<Band>  Solving the eigenvalue problem...
 KGrids1:  -0.43750  -0.31250  -0.18750  -0.06250   0.06250   0.18750   0.31250   0.43750 
 KGrids2:  -0.43750  -0.31250  -0.18750  -0.06250   0.06250   0.18750   0.31250   0.43750 
 KGrids3:   0.00000 
<Band_DFT>  Eigen, time=14.241135
<Band_DFT>  DM, time=0.000000
    1    C  MulP   1.9992  1.9992 sum   3.9985
    2    C  MulP   1.9996  1.9996 sum   3.9991
    3    C  MulP   1.9988  1.9988 sum   3.9976
    4    C  MulP   1.9995  1.9995 sum   3.9990
    5    C  MulP   1.9998  1.9998 sum   3.9997
    6    C  MulP   1.9995  1.9995 sum   3.9990
    7    C  MulP   1.9997  1.9997 sum   3.9993
    8    C  MulP   1.9994  1.9994 sum   3.9988
    9    C  MulP   1.9997  1.9997 sum   3.9994
   10    C  MulP   1.9986  1.9986 sum   3.9973
   11    C  MulP   1.9976  1.9976 sum   3.9953
   12    C  MulP   2.0000  2.0000 sum   4.0000
   13    C  MulP   1.9994  1.9994 sum   3.9988
   14    C  MulP   1.9997  1.9997 sum   3.9994
   15    C  MulP   1.9997  1.9997 sum   3.9995
   16    C  MulP   1.9995  1.9995 sum   3.9989
   17    C  MulP   1.9996  1.9996 sum   3.9993
   18    C  MulP   1.9979  1.9979 sum   3.9959
   19    C  MulP   2.0033  2.0033 sum   4.0067
   20    C  MulP   1.9928  1.9928 sum   3.9857
     ..........
     ......

 Sum of MulP: up   =   270.00000 down          =   270.00000
              total=   540.00000 ideal(neutral)=   540.00000
<DFT>  Total Spin Moment (muB) =  0.000000000000
<DFT>  Mixing_weight= 0.030000000000
<DFT>  Uele   = -262.617566100096  dUele     =   0.034842548152
<DFT>  NormRD =    0.005536981354  Criterion =   0.000000010000

******************* MD= 1  SCF=19 *******************
<Poisson>  Poisson's equation using FFT...
<Set_Hamiltonian>  Hamiltonian matrix for VNA+dVH+Vxc...
<Band>  Solving the eigenvalue problem...
 KGrids1:  -0.43750  -0.31250  -0.18750  -0.06250   0.06250   0.18750   0.31250   0.43750 
 KGrids2:  -0.43750  -0.31250  -0.18750  -0.06250   0.06250   0.18750   0.31250   0.43750 
 KGrids3:   0.00000 
<Band_DFT>  Eigen, time=14.186569
<Band_DFT>  DM, time=0.000001
    1    C  MulP   1.9991  1.9991 sum   3.9982
    2    C  MulP   1.9995  1.9995 sum   3.9989
    3    C  MulP   1.9987  1.9987 sum   3.9973
    4    C  MulP   1.9994  1.9994 sum   3.9988
    5    C  MulP   1.9998  1.9998 sum   3.9995
    6    C  MulP   1.9994  1.9994 sum   3.9988
    7    C  MulP   1.9996  1.9996 sum   3.9991
    8    C  MulP   1.9993  1.9993 sum   3.9986
    9    C  MulP   1.9996  1.9996 sum   3.9993
   10    C  MulP   1.9986  1.9986 sum   3.9973
   11    C  MulP   1.9975  1.9975 sum   3.9950
   12    C  MulP   2.0002  2.0002 sum   4.0003
   13    C  MulP   1.9993  1.9993 sum   3.9987
   14    C  MulP   1.9996  1.9996 sum   3.9993
   15    C  MulP   1.9996  1.9996 sum   3.9993
   16    C  MulP   1.9993  1.9993 sum   3.9987
   17    C  MulP   1.9996  1.9996 sum   3.9991
   18    C  MulP   1.9979  1.9979 sum   3.9957
   19    C  MulP   2.0035  2.0035 sum   4.0071
   20    C  MulP   1.9933  1.9933 sum   3.9865
     ..........
     ......

 Sum of MulP: up   =   270.00000 down          =   270.00000
              total=   540.00000 ideal(neutral)=   540.00000
<DFT>  Total Spin Moment (muB) =  0.000000000000
<DFT>  Mixing_weight= 0.030000000000
<DFT>  Uele   = -262.674819328433  dUele     =   0.057253228337
<DFT>  NormRD =    0.008760053090  Criterion =   0.000000010000

******************* MD= 1  SCF=20 *******************
<Poisson>  Poisson's equation using FFT...
<Set_Hamiltonian>  Hamiltonian matrix for VNA+dVH+Vxc...
<Band>  Solving the eigenvalue problem...
 KGrids1:  -0.43750  -0.31250  -0.18750  -0.06250   0.06250   0.18750   0.31250   0.43750 
 KGrids2:  -0.43750  -0.31250  -0.18750  -0.06250   0.06250   0.18750   0.31250   0.43750 
 KGrids3:   0.00000 
<Band_DFT>  Eigen, time=14.200328
<Band_DFT>  DM, time=0.000000
    1    C  MulP   1.9992  1.9992 sum   3.9983
    2    C  MulP   1.9995  1.9995 sum   3.9991
    3    C  MulP   1.9988  1.9988 sum   3.9975
    4    C  MulP   1.9995  1.9995 sum   3.9989
    5    C  MulP   1.9998  1.9998 sum   3.9996
    6    C  MulP   1.9995  1.9995 sum   3.9989
    7    C  MulP   1.9996  1.9996 sum   3.9993
    8    C  MulP   1.9994  1.9994 sum   3.9987
    9    C  MulP   1.9997  1.9997 sum   3.9993
   10    C  MulP   1.9986  1.9986 sum   3.9973
   11    C  MulP   1.9976  1.9976 sum   3.9952
   12    C  MulP   2.0001  2.0001 sum   4.0002
   13    C  MulP   1.9994  1.9994 sum   3.9988
   14    C  MulP   1.9997  1.9997 sum   3.9994
   15    C  MulP   1.9997  1.9997 sum   3.9994
   16    C  MulP   1.9994  1.9994 sum   3.9988
   17    C  MulP   1.9996  1.9996 sum   3.9992
   18    C  MulP   1.9979  1.9979 sum   3.9958
   19    C  MulP   2.0034  2.0034 sum   4.0068
   20    C  MulP   1.9930  1.9930 sum   3.9859
     ..........
     ......

 Sum of MulP: up   =   270.00000 down          =   270.00000
              total=   540.00000 ideal(neutral)=   540.00000
<DFT>  Total Spin Moment (muB) =  0.000000000000
<DFT>  Mixing_weight= 0.030000000000
<DFT>  Uele   = -262.712613730597  dUele     =   0.037794402165
<DFT>  NormRD =    0.000860100806  Criterion =   0.000000010000

******************* MD= 1  SCF=21 *******************
<Poisson>  Poisson's equation using FFT...
<Set_Hamiltonian>  Hamiltonian matrix for VNA+dVH+Vxc...
<Band>  Solving the eigenvalue problem...
 KGrids1:  -0.43750  -0.31250  -0.18750  -0.06250   0.06250   0.18750   0.31250   0.43750 
 KGrids2:  -0.43750  -0.31250  -0.18750  -0.06250   0.06250   0.18750   0.31250   0.43750 
 KGrids3:   0.00000 
<Band_DFT>  Eigen, time=14.186530
<Band_DFT>  DM, time=0.000000
    1    C  MulP   1.9992  1.9992 sum   3.9983
    2    C  MulP   1.9995  1.9995 sum   3.9991
    3    C  MulP   1.9987  1.9987 sum   3.9975
    4    C  MulP   1.9994  1.9994 sum   3.9989
    5    C  MulP   1.9998  1.9998 sum   3.9996
    6    C  MulP   1.9995  1.9995 sum   3.9990
    7    C  MulP   1.9996  1.9996 sum   3.9993
    8    C  MulP   1.9994  1.9994 sum   3.9987
    9    C  MulP   1.9997  1.9997 sum   3.9993
   10    C  MulP   1.9986  1.9986 sum   3.9973
   11    C  MulP   1.9976  1.9976 sum   3.9952
   12    C  MulP   2.0001  2.0001 sum   4.0001
   13    C  MulP   1.9994  1.9994 sum   3.9987
   14    C  MulP   1.9997  1.9997 sum   3.9993
   15    C  MulP   1.9997  1.9997 sum   3.9994
   16    C  MulP   1.9994  1.9994 sum   3.9988
   17    C  MulP   1.9996  1.9996 sum   3.9992
   18    C  MulP   1.9979  1.9979 sum   3.9958
   19    C  MulP   2.0034  2.0034 sum   4.0068
   20    C  MulP   1.9930  1.9930 sum   3.9860
     ..........
     ......

 Sum of MulP: up   =   270.00000 down          =   270.00000
              total=   540.00000 ideal(neutral)=   540.00000
<DFT>  Total Spin Moment (muB) =  0.000000000000
<DFT>  Mixing_weight= 0.030000000000
<DFT>  Uele   = -262.727276365353  dUele     =   0.014662634755
<DFT>  NormRD =    0.000794090104  Criterion =   0.000000010000

******************* MD= 1  SCF=22 *******************
<Poisson>  Poisson's equation using FFT...
<Set_Hamiltonian>  Hamiltonian matrix for VNA+dVH+Vxc...
<Band>  Solving the eigenvalue problem...
 KGrids1:  -0.43750  -0.31250  -0.18750  -0.06250   0.06250   0.18750   0.31250   0.43750 
 KGrids2:  -0.43750  -0.31250  -0.18750  -0.06250   0.06250   0.18750   0.31250   0.43750 
 KGrids3:   0.00000 
<Band_DFT>  Eigen, time=14.238778
<Band_DFT>  DM, time=0.000000
    1    C  MulP   1.9992  1.9992 sum   3.9983
    2    C  MulP   1.9995  1.9995 sum   3.9991
    3    C  MulP   1.9988  1.9988 sum   3.9975
    4    C  MulP   1.9995  1.9995 sum   3.9989
    5    C  MulP   1.9998  1.9998 sum   3.9996
    6    C  MulP   1.9995  1.9995 sum   3.9989
    7    C  MulP   1.9996  1.9996 sum   3.9993
    8    C  MulP   1.9994  1.9994 sum   3.9987
    9    C  MulP   1.9997  1.9997 sum   3.9993
   10    C  MulP   1.9986  1.9986 sum   3.9973
   11    C  MulP   1.9976  1.9976 sum   3.9952
   12    C  MulP   2.0001  2.0001 sum   4.0002
   13    C  MulP   1.9994  1.9994 sum   3.9988
   14    C  MulP   1.9997  1.9997 sum   3.9994
   15    C  MulP   1.9997  1.9997 sum   3.9994
   16    C  MulP   1.9994  1.9994 sum   3.9988
   17    C  MulP   1.9996  1.9996 sum   3.9992
   18    C  MulP   1.9979  1.9979 sum   3.9958
   19    C  MulP   2.0034  2.0034 sum   4.0068
   20    C  MulP   1.9930  1.9930 sum   3.9860
     ..........
     ......

 Sum of MulP: up   =   270.00000 down          =   270.00000
              total=   540.00000 ideal(neutral)=   540.00000
<DFT>  Total Spin Moment (muB) =  0.000000000000
<DFT>  Mixing_weight= 0.030000000000
<DFT>  Uele   = -262.736361462101  dUele     =   0.009085096749
<DFT>  NormRD =    0.000290179766  Criterion =   0.000000010000

******************* MD= 1  SCF=23 *******************
<Poisson>  Poisson's equation using FFT...
<Set_Hamiltonian>  Hamiltonian matrix for VNA+dVH+Vxc...
<Band>  Solving the eigenvalue problem...
 KGrids1:  -0.43750  -0.31250  -0.18750  -0.06250   0.06250   0.18750   0.31250   0.43750 
 KGrids2:  -0.43750  -0.31250  -0.18750  -0.06250   0.06250   0.18750   0.31250   0.43750 
 KGrids3:   0.00000 
<Band_DFT>  Eigen, time=14.231197
<Band_DFT>  DM, time=0.000001
    1    C  MulP   1.9992  1.9992 sum   3.9983
    2    C  MulP   1.9995  1.9995 sum   3.9991
    3    C  MulP   1.9987  1.9987 sum   3.9975
    4    C  MulP   1.9995  1.9995 sum   3.9989
    5    C  MulP   1.9998  1.9998 sum   3.9996
    6    C  MulP   1.9995  1.9995 sum   3.9989
    7    C  MulP   1.9996  1.9996 sum   3.9993
    8    C  MulP   1.9994  1.9994 sum   3.9987
    9    C  MulP   1.9997  1.9997 sum   3.9993
   10    C  MulP   1.9986  1.9986 sum   3.9973
   11    C  MulP   1.9976  1.9976 sum   3.9952
   12    C  MulP   2.0001  2.0001 sum   4.0001
   13    C  MulP   1.9994  1.9994 sum   3.9987
   14    C  MulP   1.9997  1.9997 sum   3.9993
   15    C  MulP   1.9997  1.9997 sum   3.9994
   16    C  MulP   1.9994  1.9994 sum   3.9988
   17    C  MulP   1.9996  1.9996 sum   3.9992
   18    C  MulP   1.9979  1.9979 sum   3.9958
   19    C  MulP   2.0034  2.0034 sum   4.0068
   20    C  MulP   1.9930  1.9930 sum   3.9860
     ..........
     ......

 Sum of MulP: up   =   270.00000 down          =   270.00000
              total=   540.00000 ideal(neutral)=   540.00000
<DFT>  Total Spin Moment (muB) =  0.000000000000
<DFT>  Mixing_weight= 0.030000000000
<DFT>  Uele   = -262.740314652046  dUele     =   0.003953189945
<DFT>  NormRD =    0.000181047855  Criterion =   0.000000010000

******************* MD= 1  SCF=24 *******************
<Poisson>  Poisson's equation using FFT...
<Set_Hamiltonian>  Hamiltonian matrix for VNA+dVH+Vxc...
<Band>  Solving the eigenvalue problem...
 KGrids1:  -0.43750  -0.31250  -0.18750  -0.06250   0.06250   0.18750   0.31250   0.43750 
 KGrids2:  -0.43750  -0.31250  -0.18750  -0.06250   0.06250   0.18750   0.31250   0.43750 
 KGrids3:   0.00000 
<Band_DFT>  Eigen, time=14.224713
<Band_DFT>  DM, time=0.000000
    1    C  MulP   1.9992  1.9992 sum   3.9983
    2    C  MulP   1.9995  1.9995 sum   3.9991
    3    C  MulP   1.9987  1.9987 sum   3.9975
    4    C  MulP   1.9995  1.9995 sum   3.9989
    5    C  MulP   1.9998  1.9998 sum   3.9996
    6    C  MulP   1.9995  1.9995 sum   3.9989
    7    C  MulP   1.9996  1.9996 sum   3.9993
    8    C  MulP   1.9994  1.9994 sum   3.9987
    9    C  MulP   1.9997  1.9997 sum   3.9993
   10    C  MulP   1.9986  1.9986 sum   3.9973
   11    C  MulP   1.9976  1.9976 sum   3.9952
   12    C  MulP   2.0001  2.0001 sum   4.0001
   13    C  MulP   1.9994  1.9994 sum   3.9987
   14    C  MulP   1.9997  1.9997 sum   3.9994
   15    C  MulP   1.9997  1.9997 sum   3.9994
   16    C  MulP   1.9994  1.9994 sum   3.9988
   17    C  MulP   1.9996  1.9996 sum   3.9992
   18    C  MulP   1.9979  1.9979 sum   3.9958
   19    C  MulP   2.0034  2.0034 sum   4.0068
   20    C  MulP   1.9930  1.9930 sum   3.9860
     ..........
     ......

 Sum of MulP: up   =   270.00000 down          =   270.00000
              total=   540.00000 ideal(neutral)=   540.00000
<DFT>  Total Spin Moment (muB) =  0.000000000000
<DFT>  Mixing_weight= 0.030000000000
<DFT>  Uele   = -262.741696697631  dUele     =   0.001382045585
<DFT>  NormRD =    0.000074098139  Criterion =   0.000000010000

******************* MD= 1  SCF=25 *******************
<Poisson>  Poisson's equation using FFT...
<Set_Hamiltonian>  Hamiltonian matrix for VNA+dVH+Vxc...
<Band>  Solving the eigenvalue problem...
 KGrids1:  -0.43750  -0.31250  -0.18750  -0.06250   0.06250   0.18750   0.31250   0.43750 
 KGrids2:  -0.43750  -0.31250  -0.18750  -0.06250   0.06250   0.18750   0.31250   0.43750 
 KGrids3:   0.00000 
<Band_DFT>  Eigen, time=14.219752
<Band_DFT>  DM, time=0.000001
    1    C  MulP   1.9992  1.9992 sum   3.9983
    2    C  MulP   1.9995  1.9995 sum   3.9991
    3    C  MulP   1.9987  1.9987 sum   3.9975
    4    C  MulP   1.9995  1.9995 sum   3.9989
    5    C  MulP   1.9998  1.9998 sum   3.9996
    6    C  MulP   1.9995  1.9995 sum   3.9989
    7    C  MulP   1.9996  1.9996 sum   3.9993
    8    C  MulP   1.9994  1.9994 sum   3.9987
    9    C  MulP   1.9997  1.9997 sum   3.9993
   10    C  MulP   1.9986  1.9986 sum   3.9973
   11    C  MulP   1.9976  1.9976 sum   3.9952
   12    C  MulP   2.0001  2.0001 sum   4.0001
   13    C  MulP   1.9994  1.9994 sum   3.9987
   14    C  MulP   1.9997  1.9997 sum   3.9994
   15    C  MulP   1.9997  1.9997 sum   3.9994
   16    C  MulP   1.9994  1.9994 sum   3.9988
   17    C  MulP   1.9996  1.9996 sum   3.9992
   18    C  MulP   1.9979  1.9979 sum   3.9958
   19    C  MulP   2.0034  2.0034 sum   4.0068
   20    C  MulP   1.9930  1.9930 sum   3.9860
     ..........
     ......

 Sum of MulP: up   =   270.00000 down          =   270.00000
              total=   540.00000 ideal(neutral)=   540.00000
<DFT>  Total Spin Moment (muB) =  0.000000000000
<DFT>  Mixing_weight= 0.030000000000
<DFT>  Uele   = -262.742896506508  dUele     =   0.001199808877
<DFT>  NormRD =    0.000045245172  Criterion =   0.000000010000

******************* MD= 1  SCF=26 *******************
<Poisson>  Poisson's equation using FFT...
<Set_Hamiltonian>  Hamiltonian matrix for VNA+dVH+Vxc...
<Band>  Solving the eigenvalue problem...
 KGrids1:  -0.43750  -0.31250  -0.18750  -0.06250   0.06250   0.18750   0.31250   0.43750 
 KGrids2:  -0.43750  -0.31250  -0.18750  -0.06250   0.06250   0.18750   0.31250   0.43750 
 KGrids3:   0.00000 
<Band_DFT>  Eigen, time=14.239479
<Band_DFT>  DM, time=0.000000
    1    C  MulP   1.9992  1.9992 sum   3.9983
    2    C  MulP   1.9995  1.9995 sum   3.9991
    3    C  MulP   1.9987  1.9987 sum   3.9975
    4    C  MulP   1.9995  1.9995 sum   3.9989
    5    C  MulP   1.9998  1.9998 sum   3.9996
    6    C  MulP   1.9995  1.9995 sum   3.9989
    7    C  MulP   1.9996  1.9996 sum   3.9993
    8    C  MulP   1.9994  1.9994 sum   3.9987
    9    C  MulP   1.9997  1.9997 sum   3.9993
   10    C  MulP   1.9986  1.9986 sum   3.9973
   11    C  MulP   1.9976  1.9976 sum   3.9952
   12    C  MulP   2.0001  2.0001 sum   4.0001
   13    C  MulP   1.9994  1.9994 sum   3.9987
   14    C  MulP   1.9997  1.9997 sum   3.9993
   15    C  MulP   1.9997  1.9997 sum   3.9994
   16    C  MulP   1.9994  1.9994 sum   3.9988
   17    C  MulP   1.9996  1.9996 sum   3.9992
   18    C  MulP   1.9979  1.9979 sum   3.9958
   19    C  MulP   2.0034  2.0034 sum   4.0068
   20    C  MulP   1.9930  1.9930 sum   3.9860
     ..........
     ......

 Sum of MulP: up   =   270.00000 down          =   270.00000
              total=   540.00000 ideal(neutral)=   540.00000
<DFT>  Total Spin Moment (muB) =  0.000000000000
<DFT>  Mixing_weight= 0.030000000000
<DFT>  Uele   = -262.743589871997  dUele     =   0.000693365489
<DFT>  NormRD =    0.000027421168  Criterion =   0.000000010000

******************* MD= 1  SCF=27 *******************
<Poisson>  Poisson's equation using FFT...
<Set_Hamiltonian>  Hamiltonian matrix for VNA+dVH+Vxc...
<Band>  Solving the eigenvalue problem...
 KGrids1:  -0.43750  -0.31250  -0.18750  -0.06250   0.06250   0.18750   0.31250   0.43750 
 KGrids2:  -0.43750  -0.31250  -0.18750  -0.06250   0.06250   0.18750   0.31250   0.43750 
 KGrids3:   0.00000 
<Band_DFT>  Eigen, time=14.173744
<Band_DFT>  DM, time=0.000000
    1    C  MulP   1.9992  1.9992 sum   3.9983
    2    C  MulP   1.9995  1.9995 sum   3.9991
    3    C  MulP   1.9987  1.9987 sum   3.9975
    4    C  MulP   1.9995  1.9995 sum   3.9989
    5    C  MulP   1.9998  1.9998 sum   3.9996
    6    C  MulP   1.9995  1.9995 sum   3.9989
    7    C  MulP   1.9996  1.9996 sum   3.9993
    8    C  MulP   1.9994  1.9994 sum   3.9987
    9    C  MulP   1.9997  1.9997 sum   3.9993
   10    C  MulP   1.9986  1.9986 sum   3.9973
   11    C  MulP   1.9976  1.9976 sum   3.9952
   12    C  MulP   2.0001  2.0001 sum   4.0001
   13    C  MulP   1.9994  1.9994 sum   3.9987
   14    C  MulP   1.9997  1.9997 sum   3.9994
   15    C  MulP   1.9997  1.9997 sum   3.9994
   16    C  MulP   1.9994  1.9994 sum   3.9988
   17    C  MulP   1.9996  1.9996 sum   3.9992
   18    C  MulP   1.9979  1.9979 sum   3.9958
   19    C  MulP   2.0034  2.0034 sum   4.0068
   20    C  MulP   1.9930  1.9930 sum   3.9860
     ..........
     ......

 Sum of MulP: up   =   270.00000 down          =   270.00000
              total=   540.00000 ideal(neutral)=   540.00000
<DFT>  Total Spin Moment (muB) =  0.000000000000
<DFT>  Mixing_weight= 0.030000000000
<DFT>  Uele   = -262.744059646717  dUele     =   0.000469774720
<DFT>  NormRD =    0.000010061588  Criterion =   0.000000010000

******************* MD= 1  SCF=28 *******************
<Poisson>  Poisson's equation using FFT...
<Set_Hamiltonian>  Hamiltonian matrix for VNA+dVH+Vxc...
<Band>  Solving the eigenvalue problem...
 KGrids1:  -0.43750  -0.31250  -0.18750  -0.06250   0.06250   0.18750   0.31250   0.43750 
 KGrids2:  -0.43750  -0.31250  -0.18750  -0.06250   0.06250   0.18750   0.31250   0.43750 
 KGrids3:   0.00000 
<Band_DFT>  Eigen, time=14.186787
<Band_DFT>  DM, time=0.000000
    1    C  MulP   1.9992  1.9992 sum   3.9983
    2    C  MulP   1.9995  1.9995 sum   3.9991
    3    C  MulP   1.9987  1.9987 sum   3.9975
    4    C  MulP   1.9995  1.9995 sum   3.9989
    5    C  MulP   1.9998  1.9998 sum   3.9996
    6    C  MulP   1.9995  1.9995 sum   3.9989
    7    C  MulP   1.9996  1.9996 sum   3.9993
    8    C  MulP   1.9994  1.9994 sum   3.9987
    9    C  MulP   1.9997  1.9997 sum   3.9993
   10    C  MulP   1.9986  1.9986 sum   3.9973
   11    C  MulP   1.9976  1.9976 sum   3.9952
   12    C  MulP   2.0001  2.0001 sum   4.0001
   13    C  MulP   1.9994  1.9994 sum   3.9987
   14    C  MulP   1.9997  1.9997 sum   3.9994
   15    C  MulP   1.9997  1.9997 sum   3.9994
   16    C  MulP   1.9994  1.9994 sum   3.9988
   17    C  MulP   1.9996  1.9996 sum   3.9992
   18    C  MulP   1.9979  1.9979 sum   3.9958
   19    C  MulP   2.0034  2.0034 sum   4.0068
   20    C  MulP   1.9930  1.9930 sum   3.9860
     ..........
     ......

 Sum of MulP: up   =   270.00000 down          =   270.00000
              total=   540.00000 ideal(neutral)=   540.00000
<DFT>  Total Spin Moment (muB) =  0.000000000000
<DFT>  Mixing_weight= 0.030000000000
<DFT>  Uele   = -262.744260440327  dUele     =   0.000200793610
<DFT>  NormRD =    0.000005093699  Criterion =   0.000000010000

******************* MD= 1  SCF=29 *******************
<Poisson>  Poisson's equation using FFT...
<Set_Hamiltonian>  Hamiltonian matrix for VNA+dVH+Vxc...
<Band>  Solving the eigenvalue problem...
 KGrids1:  -0.43750  -0.31250  -0.18750  -0.06250   0.06250   0.18750   0.31250   0.43750 
 KGrids2:  -0.43750  -0.31250  -0.18750  -0.06250   0.06250   0.18750   0.31250   0.43750 
 KGrids3:   0.00000 
<Band_DFT>  Eigen, time=14.188704
<Band_DFT>  DM, time=0.000000
    1    C  MulP   1.9992  1.9992 sum   3.9983
    2    C  MulP   1.9995  1.9995 sum   3.9991
    3    C  MulP   1.9987  1.9987 sum   3.9975
    4    C  MulP   1.9995  1.9995 sum   3.9989
    5    C  MulP   1.9998  1.9998 sum   3.9996
    6    C  MulP   1.9995  1.9995 sum   3.9989
    7    C  MulP   1.9996  1.9996 sum   3.9993
    8    C  MulP   1.9994  1.9994 sum   3.9987
    9    C  MulP   1.9997  1.9997 sum   3.9993
   10    C  MulP   1.9986  1.9986 sum   3.9973
   11    C  MulP   1.9976  1.9976 sum   3.9952
   12    C  MulP   2.0001  2.0001 sum   4.0001
   13    C  MulP   1.9994  1.9994 sum   3.9987
   14    C  MulP   1.9997  1.9997 sum   3.9994
   15    C  MulP   1.9997  1.9997 sum   3.9994
   16    C  MulP   1.9994  1.9994 sum   3.9988
   17    C  MulP   1.9996  1.9996 sum   3.9992
   18    C  MulP   1.9979  1.9979 sum   3.9958
   19    C  MulP   2.0034  2.0034 sum   4.0068
   20    C  MulP   1.9930  1.9930 sum   3.9860
     ..........
     ......

 Sum of MulP: up   =   270.00000 down          =   270.00000
              total=   540.00000 ideal(neutral)=   540.00000
<DFT>  Total Spin Moment (muB) =  0.000000000000
<DFT>  Mixing_weight= 0.030000000000
<DFT>  Uele   = -262.744405165107  dUele     =   0.000144724780
<DFT>  NormRD =    0.000002896923  Criterion =   0.000000010000

******************* MD= 1  SCF=30 *******************
<Poisson>  Poisson's equation using FFT...
<Set_Hamiltonian>  Hamiltonian matrix for VNA+dVH+Vxc...
<Band>  Solving the eigenvalue problem...
 KGrids1:  -0.43750  -0.31250  -0.18750  -0.06250   0.06250   0.18750   0.31250   0.43750 
 KGrids2:  -0.43750  -0.31250  -0.18750  -0.06250   0.06250   0.18750   0.31250   0.43750 
 KGrids3:   0.00000 
<Band_DFT>  Eigen, time=14.262573
<Band_DFT>  DM, time=0.000001
    1    C  MulP   1.9992  1.9992 sum   3.9983
    2    C  MulP   1.9995  1.9995 sum   3.9991
    3    C  MulP   1.9987  1.9987 sum   3.9975
    4    C  MulP   1.9995  1.9995 sum   3.9989
    5    C  MulP   1.9998  1.9998 sum   3.9996
    6    C  MulP   1.9995  1.9995 sum   3.9989
    7    C  MulP   1.9996  1.9996 sum   3.9993
    8    C  MulP   1.9994  1.9994 sum   3.9987
    9    C  MulP   1.9997  1.9997 sum   3.9993
   10    C  MulP   1.9986  1.9986 sum   3.9973
   11    C  MulP   1.9976  1.9976 sum   3.9952
   12    C  MulP   2.0001  2.0001 sum   4.0001
   13    C  MulP   1.9994  1.9994 sum   3.9987
   14    C  MulP   1.9997  1.9997 sum   3.9994
   15    C  MulP   1.9997  1.9997 sum   3.9994
   16    C  MulP   1.9994  1.9994 sum   3.9988
   17    C  MulP   1.9996  1.9996 sum   3.9992
   18    C  MulP   1.9979  1.9979 sum   3.9958
   19    C  MulP   2.0034  2.0034 sum   4.0068
   20    C  MulP   1.9930  1.9930 sum   3.9860
     ..........
     ......

 Sum of MulP: up   =   270.00000 down          =   270.00000
              total=   540.00000 ideal(neutral)=   540.00000
<DFT>  Total Spin Moment (muB) =  0.000000000000
<DFT>  Mixing_weight= 0.030000000000
<DFT>  Uele   = -262.744478744118  dUele     =   0.000073579011
<DFT>  NormRD =    0.000001427961  Criterion =   0.000000010000

******************* MD= 1  SCF=31 *******************
<Poisson>  Poisson's equation using FFT...
<Set_Hamiltonian>  Hamiltonian matrix for VNA+dVH+Vxc...
<Band>  Solving the eigenvalue problem...
 KGrids1:  -0.43750  -0.31250  -0.18750  -0.06250   0.06250   0.18750   0.31250   0.43750 
 KGrids2:  -0.43750  -0.31250  -0.18750  -0.06250   0.06250   0.18750   0.31250   0.43750 
 KGrids3:   0.00000 
<Band_DFT>  Eigen, time=14.290395
<Band_DFT>  DM, time=0.000000
    1    C  MulP   1.9992  1.9992 sum   3.9983
    2    C  MulP   1.9995  1.9995 sum   3.9991
    3    C  MulP   1.9987  1.9987 sum   3.9975
    4    C  MulP   1.9995  1.9995 sum   3.9989
    5    C  MulP   1.9998  1.9998 sum   3.9996
    6    C  MulP   1.9995  1.9995 sum   3.9989
    7    C  MulP   1.9996  1.9996 sum   3.9993
    8    C  MulP   1.9994  1.9994 sum   3.9987
    9    C  MulP   1.9997  1.9997 sum   3.9993
   10    C  MulP   1.9986  1.9986 sum   3.9973
   11    C  MulP   1.9976  1.9976 sum   3.9952
   12    C  MulP   2.0001  2.0001 sum   4.0001
   13    C  MulP   1.9994  1.9994 sum   3.9987
   14    C  MulP   1.9997  1.9997 sum   3.9994
   15    C  MulP   1.9997  1.9997 sum   3.9994
   16    C  MulP   1.9994  1.9994 sum   3.9988
   17    C  MulP   1.9996  1.9996 sum   3.9992
   18    C  MulP   1.9979  1.9979 sum   3.9958
   19    C  MulP   2.0034  2.0034 sum   4.0068
   20    C  MulP   1.9930  1.9930 sum   3.9860
     ..........
     ......

 Sum of MulP: up   =   270.00000 down          =   270.00000
              total=   540.00000 ideal(neutral)=   540.00000
<DFT>  Total Spin Moment (muB) =  0.000000000000
<DFT>  Mixing_weight= 0.030000000000
<DFT>  Uele   = -262.744512827332  dUele     =   0.000034083214
<DFT>  NormRD =    0.000000738901  Criterion =   0.000000010000

******************* MD= 1  SCF=32 *******************
<Poisson>  Poisson's equation using FFT...
<Set_Hamiltonian>  Hamiltonian matrix for VNA+dVH+Vxc...
<Band>  Solving the eigenvalue problem...
 KGrids1:  -0.43750  -0.31250  -0.18750  -0.06250   0.06250   0.18750   0.31250   0.43750 
 KGrids2:  -0.43750  -0.31250  -0.18750  -0.06250   0.06250   0.18750   0.31250   0.43750 
 KGrids3:   0.00000 
<Band_DFT>  Eigen, time=14.259533
<Band_DFT>  DM, time=0.000000
    1    C  MulP   1.9992  1.9992 sum   3.9983
    2    C  MulP   1.9995  1.9995 sum   3.9991
    3    C  MulP   1.9987  1.9987 sum   3.9975
    4    C  MulP   1.9995  1.9995 sum   3.9989
    5    C  MulP   1.9998  1.9998 sum   3.9996
    6    C  MulP   1.9995  1.9995 sum   3.9989
    7    C  MulP   1.9996  1.9996 sum   3.9993
    8    C  MulP   1.9994  1.9994 sum   3.9987
    9    C  MulP   1.9997  1.9997 sum   3.9993
   10    C  MulP   1.9986  1.9986 sum   3.9973
   11    C  MulP   1.9976  1.9976 sum   3.9952
   12    C  MulP   2.0001  2.0001 sum   4.0001
   13    C  MulP   1.9994  1.9994 sum   3.9987
   14    C  MulP   1.9997  1.9997 sum   3.9994
   15    C  MulP   1.9997  1.9997 sum   3.9994
   16    C  MulP   1.9994  1.9994 sum   3.9988
   17    C  MulP   1.9996  1.9996 sum   3.9992
   18    C  MulP   1.9979  1.9979 sum   3.9958
   19    C  MulP   2.0034  2.0034 sum   4.0068
   20    C  MulP   1.9930  1.9930 sum   3.9860
     ..........
     ......

 Sum of MulP: up   =   270.00000 down          =   270.00000
              total=   540.00000 ideal(neutral)=   540.00000
<DFT>  Total Spin Moment (muB) =  0.000000000000
<DFT>  Mixing_weight= 0.030000000000
<DFT>  Uele   = -262.744536292900  dUele     =   0.000023465568
<DFT>  NormRD =    0.000000362298  Criterion =   0.000000010000

******************* MD= 1  SCF=33 *******************
<Poisson>  Poisson's equation using FFT...
<Set_Hamiltonian>  Hamiltonian matrix for VNA+dVH+Vxc...
<Band>  Solving the eigenvalue problem...
 KGrids1:  -0.43750  -0.31250  -0.18750  -0.06250   0.06250   0.18750   0.31250   0.43750 
 KGrids2:  -0.43750  -0.31250  -0.18750  -0.06250   0.06250   0.18750   0.31250   0.43750 
 KGrids3:   0.00000 
<Band_DFT>  Eigen, time=14.227416
<Band_DFT>  DM, time=0.000000
    1    C  MulP   1.9992  1.9992 sum   3.9983
    2    C  MulP   1.9995  1.9995 sum   3.9991
    3    C  MulP   1.9987  1.9987 sum   3.9975
    4    C  MulP   1.9995  1.9995 sum   3.9989
    5    C  MulP   1.9998  1.9998 sum   3.9996
    6    C  MulP   1.9995  1.9995 sum   3.9989
    7    C  MulP   1.9996  1.9996 sum   3.9993
    8    C  MulP   1.9994  1.9994 sum   3.9987
    9    C  MulP   1.9997  1.9997 sum   3.9993
   10    C  MulP   1.9986  1.9986 sum   3.9973
   11    C  MulP   1.9976  1.9976 sum   3.9952
   12    C  MulP   2.0001  2.0001 sum   4.0001
   13    C  MulP   1.9994  1.9994 sum   3.9987
   14    C  MulP   1.9997  1.9997 sum   3.9994
   15    C  MulP   1.9997  1.9997 sum   3.9994
   16    C  MulP   1.9994  1.9994 sum   3.9988
   17    C  MulP   1.9996  1.9996 sum   3.9992
   18    C  MulP   1.9979  1.9979 sum   3.9958
   19    C  MulP   2.0034  2.0034 sum   4.0068
   20    C  MulP   1.9930  1.9930 sum   3.9860
     ..........
     ......

 Sum of MulP: up   =   270.00000 down          =   270.00000
              total=   540.00000 ideal(neutral)=   540.00000
<DFT>  Total Spin Moment (muB) =  0.000000000000
<DFT>  Mixing_weight= 0.030000000000
<DFT>  Uele   = -262.744548761550  dUele     =   0.000012468649
<DFT>  NormRD =    0.000000168848  Criterion =   0.000000010000

******************* MD= 1  SCF=34 *******************
<Poisson>  Poisson's equation using FFT...
<Set_Hamiltonian>  Hamiltonian matrix for VNA+dVH+Vxc...
<Band>  Solving the eigenvalue problem...
 KGrids1:  -0.43750  -0.31250  -0.18750  -0.06250   0.06250   0.18750   0.31250   0.43750 
 KGrids2:  -0.43750  -0.31250  -0.18750  -0.06250   0.06250   0.18750   0.31250   0.43750 
 KGrids3:   0.00000 
<Band_DFT>  Eigen, time=14.217179
<Band_DFT>  DM, time=0.000000
    1    C  MulP   1.9992  1.9992 sum   3.9983
    2    C  MulP   1.9995  1.9995 sum   3.9991
    3    C  MulP   1.9987  1.9987 sum   3.9975
    4    C  MulP   1.9995  1.9995 sum   3.9989
    5    C  MulP   1.9998  1.9998 sum   3.9996
    6    C  MulP   1.9995  1.9995 sum   3.9989
    7    C  MulP   1.9996  1.9996 sum   3.9993
    8    C  MulP   1.9994  1.9994 sum   3.9987
    9    C  MulP   1.9997  1.9997 sum   3.9993
   10    C  MulP   1.9986  1.9986 sum   3.9973
   11    C  MulP   1.9976  1.9976 sum   3.9952
   12    C  MulP   2.0001  2.0001 sum   4.0001
   13    C  MulP   1.9994  1.9994 sum   3.9987
   14    C  MulP   1.9997  1.9997 sum   3.9994
   15    C  MulP   1.9997  1.9997 sum   3.9994
   16    C  MulP   1.9994  1.9994 sum   3.9988
   17    C  MulP   1.9996  1.9996 sum   3.9992
   18    C  MulP   1.9979  1.9979 sum   3.9958
   19    C  MulP   2.0034  2.0034 sum   4.0068
   20    C  MulP   1.9930  1.9930 sum   3.9860
     ..........
     ......

 Sum of MulP: up   =   270.00000 down          =   270.00000
              total=   540.00000 ideal(neutral)=   540.00000
<DFT>  Total Spin Moment (muB) =  0.000000000000
<DFT>  Mixing_weight= 0.030000000000
<DFT>  Uele   = -262.744556130742  dUele     =   0.000007369192
<DFT>  NormRD =    0.000000066367  Criterion =   0.000000010000

******************* MD= 1  SCF=35 *******************
<Poisson>  Poisson's equation using FFT...
<Set_Hamiltonian>  Hamiltonian matrix for VNA+dVH+Vxc...
<Band>  Solving the eigenvalue problem...
 KGrids1:  -0.43750  -0.31250  -0.18750  -0.06250   0.06250   0.18750   0.31250   0.43750 
 KGrids2:  -0.43750  -0.31250  -0.18750  -0.06250   0.06250   0.18750   0.31250   0.43750 
 KGrids3:   0.00000 
<Band_DFT>  Eigen, time=14.373360
<Band_DFT>  DM, time=0.000000
    1    C  MulP   1.9992  1.9992 sum   3.9983
    2    C  MulP   1.9995  1.9995 sum   3.9991
    3    C  MulP   1.9987  1.9987 sum   3.9975
    4    C  MulP   1.9995  1.9995 sum   3.9989
    5    C  MulP   1.9998  1.9998 sum   3.9996
    6    C  MulP   1.9995  1.9995 sum   3.9989
    7    C  MulP   1.9996  1.9996 sum   3.9993
    8    C  MulP   1.9994  1.9994 sum   3.9987
    9    C  MulP   1.9997  1.9997 sum   3.9993
   10    C  MulP   1.9986  1.9986 sum   3.9973
   11    C  MulP   1.9976  1.9976 sum   3.9952
   12    C  MulP   2.0001  2.0001 sum   4.0001
   13    C  MulP   1.9994  1.9994 sum   3.9987
   14    C  MulP   1.9997  1.9997 sum   3.9994
   15    C  MulP   1.9997  1.9997 sum   3.9994
   16    C  MulP   1.9994  1.9994 sum   3.9988
   17    C  MulP   1.9996  1.9996 sum   3.9992
   18    C  MulP   1.9979  1.9979 sum   3.9958
   19    C  MulP   2.0034  2.0034 sum   4.0068
   20    C  MulP   1.9930  1.9930 sum   3.9860
     ..........
     ......

 Sum of MulP: up   =   270.00000 down          =   270.00000
              total=   540.00000 ideal(neutral)=   540.00000
<DFT>  Total Spin Moment (muB) =  0.000000000000
<DFT>  Mixing_weight= 0.030000000000
<DFT>  Uele   = -262.744558710419  dUele     =   0.000002579677
<DFT>  NormRD =    0.000000027545  Criterion =   0.000000010000

******************* MD= 1  SCF=36 *******************
<Poisson>  Poisson's equation using FFT...
<Set_Hamiltonian>  Hamiltonian matrix for VNA+dVH+Vxc...
<Band>  Solving the eigenvalue problem...
 KGrids1:  -0.43750  -0.31250  -0.18750  -0.06250   0.06250   0.18750   0.31250   0.43750 
 KGrids2:  -0.43750  -0.31250  -0.18750  -0.06250   0.06250   0.18750   0.31250   0.43750 
 KGrids3:   0.00000 
<Band_DFT>  Eigen, time=14.233004
<Band_DFT>  DM, time=0.000000
    1    C  MulP   1.9992  1.9992 sum   3.9983
    2    C  MulP   1.9995  1.9995 sum   3.9991
    3    C  MulP   1.9987  1.9987 sum   3.9975
    4    C  MulP   1.9995  1.9995 sum   3.9989
    5    C  MulP   1.9998  1.9998 sum   3.9996
    6    C  MulP   1.9995  1.9995 sum   3.9989
    7    C  MulP   1.9996  1.9996 sum   3.9993
    8    C  MulP   1.9994  1.9994 sum   3.9987
    9    C  MulP   1.9997  1.9997 sum   3.9993
   10    C  MulP   1.9986  1.9986 sum   3.9973
   11    C  MulP   1.9976  1.9976 sum   3.9952
   12    C  MulP   2.0001  2.0001 sum   4.0001
   13    C  MulP   1.9994  1.9994 sum   3.9987
   14    C  MulP   1.9997  1.9997 sum   3.9994
   15    C  MulP   1.9997  1.9997 sum   3.9994
   16    C  MulP   1.9994  1.9994 sum   3.9988
   17    C  MulP   1.9996  1.9996 sum   3.9992
   18    C  MulP   1.9979  1.9979 sum   3.9958
   19    C  MulP   2.0034  2.0034 sum   4.0068
   20    C  MulP   1.9930  1.9930 sum   3.9860
     ..........
     ......

 Sum of MulP: up   =   270.00000 down          =   270.00000
              total=   540.00000 ideal(neutral)=   540.00000
<DFT>  Total Spin Moment (muB) =  0.000000000000
<DFT>  Mixing_weight= 0.030000000000
<DFT>  Uele   = -262.744559798637  dUele     =   0.000001088218
<DFT>  NormRD =    0.000000009427  Criterion =   0.000000010000

******************* MD= 1  SCF=37 *******************
<Poisson>  Poisson's equation using FFT...
<Set_Hamiltonian>  Hamiltonian matrix for VNA+dVH+Vxc...
<Band>  Solving the eigenvalue problem...
 KGrids1:  -0.43750  -0.31250  -0.18750  -0.06250   0.06250   0.18750   0.31250   0.43750 
 KGrids2:  -0.43750  -0.31250  -0.18750  -0.06250   0.06250   0.18750   0.31250   0.43750 
 KGrids3:   0.00000 
<Band_DFT>  Eigen, time=14.197547
<Band_DFT>  DM, time=0.000000
    1    C  MulP   1.9992  1.9992 sum   3.9983
    2    C  MulP   1.9995  1.9995 sum   3.9991
    3    C  MulP   1.9987  1.9987 sum   3.9975
    4    C  MulP   1.9995  1.9995 sum   3.9989
    5    C  MulP   1.9998  1.9998 sum   3.9996
    6    C  MulP   1.9995  1.9995 sum   3.9989
    7    C  MulP   1.9996  1.9996 sum   3.9993
    8    C  MulP   1.9994  1.9994 sum   3.9987
    9    C  MulP   1.9997  1.9997 sum   3.9993
   10    C  MulP   1.9986  1.9986 sum   3.9973
   11    C  MulP   1.9976  1.9976 sum   3.9952
   12    C  MulP   2.0001  2.0001 sum   4.0001
   13    C  MulP   1.9994  1.9994 sum   3.9987
   14    C  MulP   1.9997  1.9997 sum   3.9994
   15    C  MulP   1.9997  1.9997 sum   3.9994
   16    C  MulP   1.9994  1.9994 sum   3.9988
   17    C  MulP   1.9996  1.9996 sum   3.9992
   18    C  MulP   1.9979  1.9979 sum   3.9958
   19    C  MulP   2.0034  2.0034 sum   4.0068
   20    C  MulP   1.9930  1.9930 sum   3.9860
     ..........
     ......

 Sum of MulP: up   =   270.00000 down          =   270.00000
              total=   540.00000 ideal(neutral)=   540.00000
<DFT>  Total Spin Moment (muB) =  0.000000000000
<DFT>  Mixing_weight= 0.030000000000
<DFT>  Uele   = -262.744560155641  dUele     =   0.000000357004
<DFT>  NormRD =    0.000000004222  Criterion =   0.000000010000

******************* MD= 1  SCF=38 *******************
<Poisson>  Poisson's equation using FFT...
<Set_Hamiltonian>  Hamiltonian matrix for VNA+dVH+Vxc...
<Band>  Solving the eigenvalue problem...
 KGrids1:  -0.43750  -0.31250  -0.18750  -0.06250   0.06250   0.18750   0.31250   0.43750 
 KGrids2:  -0.43750  -0.31250  -0.18750  -0.06250   0.06250   0.18750   0.31250   0.43750 
 KGrids3:   0.00000 
<Band_DFT>  Eigen, time=14.194294
<Band_DFT>  DM, time=0.000000
    1    C  MulP   1.9992  1.9992 sum   3.9983
    2    C  MulP   1.9995  1.9995 sum   3.9991
    3    C  MulP   1.9987  1.9987 sum   3.9975
    4    C  MulP   1.9995  1.9995 sum   3.9989
    5    C  MulP   1.9998  1.9998 sum   3.9996
    6    C  MulP   1.9995  1.9995 sum   3.9989
    7    C  MulP   1.9996  1.9996 sum   3.9993
    8    C  MulP   1.9994  1.9994 sum   3.9987
    9    C  MulP   1.9997  1.9997 sum   3.9993
   10    C  MulP   1.9986  1.9986 sum   3.9973
   11    C  MulP   1.9976  1.9976 sum   3.9952
   12    C  MulP   2.0001  2.0001 sum   4.0001
   13    C  MulP   1.9994  1.9994 sum   3.9987
   14    C  MulP   1.9997  1.9997 sum   3.9994
   15    C  MulP   1.9997  1.9997 sum   3.9994
   16    C  MulP   1.9994  1.9994 sum   3.9988
   17    C  MulP   1.9996  1.9996 sum   3.9992
   18    C  MulP   1.9979  1.9979 sum   3.9958
   19    C  MulP   2.0034  2.0034 sum   4.0068
   20    C  MulP   1.9930  1.9930 sum   3.9860
     ..........
     ......

[...]
<Band>  Solving the eigenvalue problem...
 KGrids1:  -0.43750  -0.31250  -0.18750  -0.06250   0.06250   0.18750   0.31250   0.43750 
 KGrids2:  -0.43750  -0.31250  -0.18750  -0.06250   0.06250   0.18750   0.31250   0.43750 
 KGrids3:   0.00000 
<Band_DFT>  Eigen, time=14.271198
<Band_DFT>  DM, time=0.000000
    1    C  MulP   1.9991  1.9991 sum   3.9983
    2    C  MulP   1.9995  1.9995 sum   3.9991
    3    C  MulP   1.9987  1.9987 sum   3.9975
    4    C  MulP   1.9994  1.9994 sum   3.9989
    5    C  MulP   1.9998  1.9998 sum   3.9995
    6    C  MulP   1.9995  1.9995 sum   3.9989
    7    C  MulP   1.9996  1.9996 sum   3.9992
    8    C  MulP   1.9994  1.9994 sum   3.9987
    9    C  MulP   1.9997  1.9997 sum   3.9994
   10    C  MulP   1.9987  1.9987 sum   3.9974
   11    C  MulP   1.9976  1.9976 sum   3.9952
   12    C  MulP   2.0001  2.0001 sum   4.0003
   13    C  MulP   1.9994  1.9994 sum   3.9988
   14    C  MulP   1.9997  1.9997 sum   3.9994
   15    C  MulP   1.9997  1.9997 sum   3.9994
   16    C  MulP   1.9994  1.9994 sum   3.9989
   17    C  MulP   1.9996  1.9996 sum   3.9991
   18    C  MulP   1.9980  1.9980 sum   3.9959
   19    C  MulP   2.0032  2.0032 sum   4.0065
   20    C  MulP   1.9929  1.9929 sum   3.9859
     ..........
     ......

 Sum of MulP: up   =   270.00000 down          =   270.00000
              total=   540.00000 ideal(neutral)=   540.00000
<DFT>  Total Spin Moment (muB) =  0.000000000000
<DFT>  Mixing_weight= 0.030000000000
<DFT>  Uele   = -262.636903978464  dUele     =   0.000000006505
<DFT>  NormRD =    0.000000074843  Criterion =   0.000000010000
<MD=62>  Force calculation
  Force calculation #1
  Force calculation #2
  Force calculation #3
  Force calculation #4
  Force calculation #5
<MD=62>  Total Energy
  Force calculation #6
  Force calculation #7

*******************************************************
                  Dipole moment (Debye)                 
*******************************************************

 Absolute D       32.21865513

                      Dx                Dy                Dz
 Total             24.16878497      -21.30445355       -0.17841090
 Core           12764.02460745    22138.51314005    27706.26757619
 Electron      -12739.85582248   -22159.81759360   -27706.44598709
 Back ground       -0.00000000       -0.00000000       -0.00000000

*******************************************************
                Total Energy (Hartree) at MD =62        
*******************************************************

  Uele  =    -262.636903978464

  Ukin  =     583.460986729225
  UH0   =   -7778.521915612898
  UH1   =       1.990884930293
  Una   =    -433.682343166766
  Unl   =     -56.047077249193
  Uxc0  =    -132.564155202073
  Uxc1  =    -132.564155202073
  Ucore =    7129.222400421459
  Uhub  =       0.000000000000
  Ucs   =       0.000000000000
  Uzs   =       0.000000000000
  Uzo   =       0.000000000000
  Uef   =       0.000000000000
  UvdW  =       0.000000000000
  Uch   =       0.000000000000
  Utot  =    -818.705374352026

  UpV   =       0.000000000000
  Enpy  =    -818.705374352026
  Note:

  Uele:   band energy
  Ukin:   kinetic energy
  UH0:    electric part of screened Coulomb energy
  UH1:    difference electron-electron Coulomb energy
  Una:    neutral atom potential energy
  Unl:    non-local potential energy
  Uxc0:   exchange-correlation energy for alpha spin
  Uxc1:   exchange-correlation energy for beta spin
  Ucore:  core-core Coulomb energy
  Uhub:   LDA+U energy
  Ucs:    constraint energy for spin orientation
  Uzs:    Zeeman term for spin magnetic moment
  Uzo:    Zeeman term for orbital magnetic moment
  Uef:    electric energy by electric field
  UvdW:   semi-empirical vdW energy 
  Uch:    penalty term to create a core hole
  UpV:    pressure times volume
  Enpy:   Enthalpy = Utot + UpV
  (see also PRB 72, 045121(2005) for the energy contributions)


*******************************************************
           Computational times (s) at MD =62            
*******************************************************

  DFT in total      =  262.85414

  Set_OLP_Kin       =    1.13699
  Set_Nonlocal      =    2.88972
  Set_ProExpn_VNA   =    4.71270
  Set_Hamiltonian   =   14.31330
  Poisson           =    0.17514
  diagonalization   =  225.67687
  Mixing_DM         =    1.53031
  Force             =    3.85587
  Total_Energy      =    1.28512
  Set_Aden_Grid     =    0.23472
  Set_Orbitals_Grid =    0.51938
  Set_Density_Grid  =    5.65483
  RestartFileDFT    =    0.31715
  Mulliken_Charge   =    0.01182
  FFT(2D)_Density   =    0.19381

The SCF was achieved at MD=  62

*******************************************************
             MD or geometry opt. at MD =62              
*******************************************************


The geometry optimization was achieved.
<RF>  |Maximum force| (Hartree/Bohr) = 0.000080779160
<RF>  Criterion       (Hartree/Bohr) = 0.000100000000

     atom=   1, XYZ(ang) Fxyz(a.u.)=   0.0130    1.4085   10.4487     0.0000   -0.0000   -0.0000
     atom=   2, XYZ(ang) Fxyz(a.u.)=  -1.2192    3.5479   10.4666    -0.0000    0.0000   -0.0000
     atom=   3, XYZ(ang) Fxyz(a.u.)=  -2.4482    5.6848   10.5046     0.0000    0.0000    0.0000
     atom=   4, XYZ(ang) Fxyz(a.u.)=  -3.6797    7.8222   10.5151     0.0000    0.0000    0.0000
     atom=   5, XYZ(ang) Fxyz(a.u.)=  -4.9175    9.9570   10.4976     0.0000    0.0000    0.0000
     atom=   6, XYZ(ang) Fxyz(a.u.)=  -6.1547   12.0925   10.4742     0.0000   -0.0000    0.0000
     atom=   7, XYZ(ang) Fxyz(a.u.)=  -7.3887   14.2300   10.4571     0.0000    0.0000    0.0000
     atom=   8, XYZ(ang) Fxyz(a.u.)=  -8.6225   16.3663   10.4471     0.0000   -0.0000    0.0000
     atom=   9, XYZ(ang) Fxyz(a.u.)=   2.4800    1.4088   10.3683     0.0001   -0.0000    0.0000
     atom=  10, XYZ(ang) Fxyz(a.u.)=   1.2447    3.5390   10.3590     0.0000   -0.0000   -0.0000
     atom=  11, XYZ(ang) Fxyz(a.u.)=   0.0195    5.6832   10.4006     0.0000    0.0000    0.0000
     atom=  12, XYZ(ang) Fxyz(a.u.)=  -1.2048    7.8212   10.5058     0.0000   -0.0000    0.0000
     atom=  13, XYZ(ang) Fxyz(a.u.)=  -2.4417    9.9559   10.5049     0.0000    0.0000   -0.0000
     atom=  14, XYZ(ang) Fxyz(a.u.)=  -3.6841   12.0934   10.4895    -0.0000    0.0000    0.0000
     atom=  15, XYZ(ang) Fxyz(a.u.)=  -4.9205   14.2302   10.4536     0.0000    0.0000    0.0000
     atom=  16, XYZ(ang) Fxyz(a.u.)=  -6.1545   16.3671   10.4092     0.0000   -0.0000    0.0000
     atom=  17, XYZ(ang) Fxyz(a.u.)=   4.9492    1.4090   10.3674     0.0000    0.0000    0.0001
     atom=  18, XYZ(ang) Fxyz(a.u.)=   3.7144    3.5474   10.2636    -0.0000    0.0000    0.0001
     atom=  19, XYZ(ang) Fxyz(a.u.)=   2.4690    5.6716   10.1937    -0.0000   -0.0000   -0.0000
     atom=  20, XYZ(ang) Fxyz(a.u.)=   1.2777    7.8151   10.3845    -0.0000   -0.0000   -0.0000
     atom=  21, XYZ(ang) Fxyz(a.u.)=   0.0338    9.9578   10.5703     0.0000    0.0000   -0.0000
     atom=  22, XYZ(ang) Fxyz(a.u.)=  -1.2176   12.0959   10.5589    -0.0000    0.0000   -0.0000
     atom=  23, XYZ(ang) Fxyz(a.u.)=  -2.4529   14.2310   10.5038     0.0000    0.0000    0.0000
     atom=  24, XYZ(ang) Fxyz(a.u.)=  -3.6867   16.3666   10.4425    -0.0000    0.0000    0.0000
     atom=  25, XYZ(ang) Fxyz(a.u.)=   7.4162    1.4090   10.4453     0.0000    0.0000    0.0000
     atom=  26, XYZ(ang) Fxyz(a.u.)=   6.1841    3.5396   10.3593     0.0000    0.0000    0.0000
     atom=  27, XYZ(ang) Fxyz(a.u.)=   4.9594    5.6721   10.1944     0.0000    0.0001    0.0000
     atom=  28, XYZ(ang) Fxyz(a.u.)=   3.7133    7.6792    9.5872    -0.0000    0.0000   -0.0000
     atom=  29, XYZ(ang) Fxyz(a.u.)=   2.4535    9.9856   10.9141    -0.0000    0.0000   -0.0000
     atom=  30, XYZ(ang) Fxyz(a.u.)=   1.2424   12.1051   10.6858    -0.0000    0.0000   -0.0001
     atom=  31, XYZ(ang) Fxyz(a.u.)=   0.0122   14.2365   10.5943     0.0000    0.0000   -0.0000
     atom=  32, XYZ(ang) Fxyz(a.u.)=  -1.2205   16.3697   10.5198     0.0000    0.0000   -0.0000
     atom=  33, XYZ(ang) Fxyz(a.u.)=   9.8825    1.4124   10.5341     0.0000    0.0000   -0.0000
     atom=  34, XYZ(ang) Fxyz(a.u.)=   8.6483    3.5482   10.4664     0.0000   -0.0000    0.0000
     atom=  35, XYZ(ang) Fxyz(a.u.)=   7.4092    5.6834   10.4029     0.0000    0.0000    0.0000
     atom=  36, XYZ(ang) Fxyz(a.u.)=   6.1500    7.8152   10.3880     0.0000    0.0000    0.0000
     atom=  37, XYZ(ang) Fxyz(a.u.)=   4.9735    9.9842   10.9197     0.0000    0.0001   -0.0000
     atom=  38, XYZ(ang) Fxyz(a.u.)=   3.7140   12.1095   10.8545    -0.0000    0.0000   -0.0000
     atom=  39, XYZ(ang) Fxyz(a.u.)=   2.4778   14.2377   10.6999    -0.0000   -0.0000   -0.0001
     atom=  40, XYZ(ang) Fxyz(a.u.)=   1.2464   16.3712   10.6063     0.0000    0.0000   -0.0001
     atom=  41, XYZ(ang) Fxyz(a.u.)=  12.3494    1.4143   10.5959    -0.0000   -0.0000   -0.0000
     atom=  42, XYZ(ang) Fxyz(a.u.)=  11.1147    3.5502   10.5438     0.0000    0.0000   -0.0000
     atom=  43, XYZ(ang) Fxyz(a.u.)=   9.8772    5.6848   10.5068     0.0000   -0.0000   -0.0000
     atom=  44, XYZ(ang) Fxyz(a.u.)=   8.6333    7.8209   10.5110     0.0000   -0.0000   -0.0000
     atom=  45, XYZ(ang) Fxyz(a.u.)=   7.3946    9.9572   10.5789     0.0000   -0.0000   -0.0000
     atom=  46, XYZ(ang) Fxyz(a.u.)=   6.1860   12.1042   10.6946     0.0000   -0.0000   -0.0001
     atom=  47, XYZ(ang) Fxyz(a.u.)=   4.9512   14.2375   10.7048     0.0000   -0.0000   -0.0000
     atom=  48, XYZ(ang) Fxyz(a.u.)=   3.7147   16.3729   10.6545     0.0000    0.0000   -0.0001
     atom=  49, XYZ(ang) Fxyz(a.u.)=  14.8183    1.4142   10.5975     0.0000    0.0000   -0.0000
     atom=  50, XYZ(ang) Fxyz(a.u.)=  13.5838    3.5505   10.5712    -0.0000    0.0000   -0.0000
     atom=  51, XYZ(ang) Fxyz(a.u.)=  12.3483    5.6868   10.5415     0.0000   -0.0000   -0.0001
     atom=  52, XYZ(ang) Fxyz(a.u.)=  11.1086    7.8220   10.5195     0.0000   -0.0000   -0.0000
     atom=  53, XYZ(ang) Fxyz(a.u.)=   9.8707    9.9555   10.5135     0.0000   -0.0000    0.0000
     atom=  54, XYZ(ang) Fxyz(a.u.)=   8.6464   12.0953   10.5700     0.0000    0.0000   -0.0000
     atom=  55, XYZ(ang) Fxyz(a.u.)=   7.4168   14.2358   10.6051     0.0000   -0.0000    0.0000
     atom=  56, XYZ(ang) Fxyz(a.u.)=   6.1830   16.3710   10.6131     0.0000   -0.0000    0.0000
     atom=  57, XYZ(ang) Fxyz(a.u.)=  17.2851    1.4121   10.5388    -0.0000    0.0000    0.0000
     atom=  58, XYZ(ang) Fxyz(a.u.)=  16.0529    3.5500   10.5440    -0.0000   -0.0000    0.0000
     atom=  59, XYZ(ang) Fxyz(a.u.)=  14.8193    5.6869   10.5406     0.0000    0.0000   -0.0000
     atom=  60, XYZ(ang) Fxyz(a.u.)=  13.5837    7.8214   10.5195     0.0000   -0.0000   -0.0000
     atom=  61, XYZ(ang) Fxyz(a.u.)=  12.3466    9.9569   10.5014     0.0000   -0.0000    0.0000
     atom=  62, XYZ(ang) Fxyz(a.u.)=  11.1130   12.0931   10.4975     0.0000    0.0000    0.0001
     atom=  63, XYZ(ang) Fxyz(a.u.)=   9.8820   14.2306   10.5135     0.0000    0.0000    0.0000
     atom=  64, XYZ(ang) Fxyz(a.u.)=   8.6498   16.3692   10.5290     0.0000    0.0000    0.0001
     atom=  65, XYZ(ang) Fxyz(a.u.)=   1.2463    0.6964   10.4199     0.0000   -0.0000   -0.0001
     atom=  66, XYZ(ang) Fxyz(a.u.)=   0.0120    2.8311   10.4266     0.0000    0.0000   -0.0000
     atom=  67, XYZ(ang) Fxyz(a.u.)=  -1.2177    4.9718   10.4583     0.0000    0.0000   -0.0000
     atom=  68, XYZ(ang) Fxyz(a.u.)=  -2.4418    7.1121   10.5118     0.0000    0.0001    0.0000
     atom=  69, XYZ(ang) Fxyz(a.u.)=  -3.6795    9.2458   10.5039     0.0000    0.0000   -0.0000
     atom=  70, XYZ(ang) Fxyz(a.u.)=  -4.9190   11.3811   10.4832    -0.0000    0.0000   -0.0000
     atom=  71, XYZ(ang) Fxyz(a.u.)=  -6.1545   13.5175   10.4578    -0.0000    0.0000    0.0000
     atom=  72, XYZ(ang) Fxyz(a.u.)=  -7.3889   15.6535   10.4340     0.0000   -0.0000   -0.0000
     atom=  73, XYZ(ang) Fxyz(a.u.)=   3.7147    0.6948   10.3740    -0.0000    0.0000   -0.0000
     atom=  74, XYZ(ang) Fxyz(a.u.)=   2.4777    2.8296   10.3232     0.0000    0.0000   -0.0000
     atom=  75, XYZ(ang) Fxyz(a.u.)=   1.2421    4.9622   10.3315     0.0000    0.0000   -0.0000
     atom=  76, XYZ(ang) Fxyz(a.u.)=   0.0336    7.1097   10.4439    -0.0000    0.0000   -0.0000
     atom=  77, XYZ(ang) Fxyz(a.u.)=  -1.2046    9.2466   10.5091     0.0000    0.0000    0.0000
     atom=  78, XYZ(ang) Fxyz(a.u.)=  -2.4480   11.3830   10.5134     0.0000   -0.0000   -0.0000
     atom=  79, XYZ(ang) Fxyz(a.u.)=  -3.6853   13.5179   10.4801    -0.0000    0.0000   -0.0000
     atom=  80, XYZ(ang) Fxyz(a.u.)=  -4.9200   15.6536   10.4315     0.0000    0.0000    0.0000
     atom=  81, XYZ(ang) Fxyz(a.u.)=   6.1832    0.6968   10.4170    -0.0000    0.0000   -0.0000
     atom=  82, XYZ(ang) Fxyz(a.u.)=   4.9514    2.8299   10.3230    -0.0000    0.0000   -0.0000
     atom=  83, XYZ(ang) Fxyz(a.u.)=   3.7145    4.9572   10.1684    -0.0000    0.0000   -0.0000
     atom=  84, XYZ(ang) Fxyz(a.u.)=   2.4531    7.0807   10.1021    -0.0001    0.0001   -0.0000
     atom=  85, XYZ(ang) Fxyz(a.u.)=   1.2781    9.2521   10.6293    -0.0000    0.0000    0.0000
     atom=  86, XYZ(ang) Fxyz(a.u.)=   0.0199   11.3843   10.6150     0.0000   -0.0000    0.0000
     atom=  87, XYZ(ang) Fxyz(a.u.)=  -1.2188   13.5199   10.5533     0.0000    0.0000    0.0000
     atom=  88, XYZ(ang) Fxyz(a.u.)=  -2.4529   15.6556   10.4877    -0.0000    0.0000    0.0000
     atom=  89, XYZ(ang) Fxyz(a.u.)=   8.6501    0.6985   10.5006     0.0000    0.0000   -0.0000
     atom=  90, XYZ(ang) Fxyz(a.u.)=   7.4172    2.8316   10.4254     0.0000    0.0000   -0.0000
     atom=  91, XYZ(ang) Fxyz(a.u.)=   6.1866    4.9627   10.3327     0.0001    0.0000   -0.0000
     atom=  92, XYZ(ang) Fxyz(a.u.)=   4.9746    7.0816   10.1027    -0.0000   -0.0000    0.0000
     atom=  93, XYZ(ang) Fxyz(a.u.)=   3.7118    9.3813   11.4279    -0.0000    0.0000    0.0000
     atom=  94, XYZ(ang) Fxyz(a.u.)=   2.4691   11.3951   10.8249    -0.0000   -0.0000    0.0000
     atom=  95, XYZ(ang) Fxyz(a.u.)=   1.2450   13.5283   10.6610    -0.0000    0.0000    0.0000
     atom=  96, XYZ(ang) Fxyz(a.u.)=   0.0133   15.6591   10.5757    -0.0000    0.0000    0.0000
     atom=  97, XYZ(ang) Fxyz(a.u.)=  11.1161    0.7015   10.5821     0.0000    0.0000    0.0001
     atom=  98, XYZ(ang) Fxyz(a.u.)=   9.8823    2.8371   10.5178    -0.0000   -0.0000    0.0000
     atom=  99, XYZ(ang) Fxyz(a.u.)=   8.6469    4.9721   10.4599     0.0001    0.0000   -0.0000
     atom= 100, XYZ(ang) Fxyz(a.u.)=   7.3948    7.1097   10.4477     0.0000   -0.0000   -0.0000
     atom= 101, XYZ(ang) Fxyz(a.u.)=   6.1499    9.2515   10.6357     0.0000   -0.0000   -0.0000
     atom= 102, XYZ(ang) Fxyz(a.u.)=   4.9588   11.3941   10.8306     0.0000   -0.0001   -0.0000
     atom= 103, XYZ(ang) Fxyz(a.u.)=   3.7144   13.5197   10.7614    -0.0000   -0.0000    0.0000
     atom= 104, XYZ(ang) Fxyz(a.u.)=   2.4802   15.6588   10.6580     0.0000    0.0000    0.0001
     atom= 105, XYZ(ang) Fxyz(a.u.)=  13.5839    0.7007   10.6205     0.0000    0.0000    0.0000
     atom= 106, XYZ(ang) Fxyz(a.u.)=  12.3498    2.8378   10.5738    -0.0000    0.0000    0.0001
     atom= 107, XYZ(ang) Fxyz(a.u.)=  11.1133    4.9746   10.5334     0.0000   -0.0000    0.0000
     atom= 108, XYZ(ang) Fxyz(a.u.)=   9.8708    7.1119   10.5160     0.0000   -0.0000   -0.0000
     atom= 109, XYZ(ang) Fxyz(a.u.)=   8.6335    9.2463   10.5170     0.0000    0.0000    0.0000
     atom= 110, XYZ(ang) Fxyz(a.u.)=   7.4089   11.3835   10.6250     0.0000    0.0000   -0.0000
     atom= 111, XYZ(ang) Fxyz(a.u.)=   6.1839   13.5277   10.6696     0.0000    0.0000   -0.0000
     atom= 112, XYZ(ang) Fxyz(a.u.)=   4.9492   15.6586   10.6621    -0.0000    0.0000    0.0000
     atom= 113, XYZ(ang) Fxyz(a.u.)=  16.0517    0.7012   10.5866     0.0000    0.0000    0.0000
     atom= 114, XYZ(ang) Fxyz(a.u.)=  14.8179    2.8377   10.5741    -0.0000   -0.0000   -0.0000
     atom= 115, XYZ(ang) Fxyz(a.u.)=  13.5839    4.9755   10.5535     0.0000    0.0000   -0.0000
     atom= 116, XYZ(ang) Fxyz(a.u.)=  12.3468    7.1108   10.5267     0.0000   -0.0000   -0.0000
     atom= 117, XYZ(ang) Fxyz(a.u.)=  11.1087    9.2456   10.5101     0.0000    0.0000    0.0001
     atom= 118, XYZ(ang) Fxyz(a.u.)=   9.8771   11.3827   10.5233     0.0000    0.0000   -0.0000
     atom= 119, XYZ(ang) Fxyz(a.u.)=   8.6481   13.5193   10.5647     0.0000    0.0000    0.0000
     atom= 120, XYZ(ang) Fxyz(a.u.)=   7.4161   15.6586   10.5854    -0.0000    0.0000    0.0000
     atom= 121, XYZ(ang) Fxyz(a.u.)=  18.5176    0.6980   10.5069    -0.0000   -0.0000   -0.0000
     atom= 122, XYZ(ang) Fxyz(a.u.)=  17.2853    2.8367   10.5194    -0.0000   -0.0000   -0.0000
     atom= 123, XYZ(ang) Fxyz(a.u.)=  16.0543    4.9746   10.5322    -0.0000    0.0000   -0.0000
     atom= 124, XYZ(ang) Fxyz(a.u.)=  14.8208    7.1108   10.5247     0.0000   -0.0000   -0.0000
     atom= 125, XYZ(ang) Fxyz(a.u.)=  13.5838    9.2465   10.5057     0.0000    0.0000    0.0000
     atom= 126, XYZ(ang) Fxyz(a.u.)=  12.3482   11.3810   10.4877    -0.0000    0.0000    0.0001
     atom= 127, XYZ(ang) Fxyz(a.u.)=  11.1145   13.5177   10.4876     0.0000    0.0000   -0.0000
     atom= 128, XYZ(ang) Fxyz(a.u.)=   9.8824   15.6552   10.4959     0.0000   -0.0000   -0.0000
     atom= 129, XYZ(ang) Fxyz(a.u.)=   3.7059    8.5289   12.3329    -0.0000    0.0001    0.0000
     atom= 130, XYZ(ang) Fxyz(a.u.)=   3.7110    8.5167    8.6680     0.0001   -0.0000   -0.0000
     atom= 131, XYZ(ang) Fxyz(a.u.)=   4.9663    8.5991   16.2389     0.0000    0.0001   -0.0000
     atom= 132, XYZ(ang) Fxyz(a.u.)=   5.0315    8.6961   15.0570     0.0000   -0.0001   -0.0000
     atom= 133, XYZ(ang) Fxyz(a.u.)=   4.9020    8.5020   17.4248    -0.0001    0.0000   -0.0000

outputting data on grids to files...


***********************************************************
***********************************************************
               Computational Time (second)                 
***********************************************************
***********************************************************

                               Min_ID   Min_Time       Max_ID   Max_Time
   Total Computational Time =    45    18776.642          0    18776.771
   readfile                 =    27        2.485          0        2.489
   truncation               =    40       53.121         15       62.960
   MD_pac                   =     0        3.331         19        3.585
   OutData                  =    48        0.590          0        0.713
   DFT                      =    15    18706.916         40    18716.756

*** In DFT ***

   Set_OLP_Kin              =    40       13.582         15      105.587
   Set_Nonlocal             =    15      143.995         40      235.996
   Set_ProExpn_VNA          =    40      239.491         47      303.501
   Set_Hamiltonian          =    18     1036.739          7     1036.753
   Poisson                  =    36       12.465          3       12.471
   Diagonalization          =     0    16181.530         52    16181.559
   Mixing_DM                =    18      110.596          2      110.603
   Force                    =    18      240.140          5      240.140
   Total_Energy             =    43       81.054          0       81.073
   Set_Aden_Grid            =    47        3.924         40       67.963
   Set_Orbitals_Grid        =    40        6.544         15       49.770
   Set_Density_Grid         =     1      400.652         36      413.984
   RestartFileDFT           =     2        4.364         40       32.453
   Mulliken_Charge          =    54        0.801          2        0.804
   FFT(2D)_Density          =    13       13.481         30       13.496
   Others                   =    31        7.814         40       40.350

The calculation was normally finished.
