
The number of threads in each node for OpenMP parallelization is 1.


*******************************************************
*******************************************************
 Welcome to OpenMX   Ver. 3.9.9                           
 Copyright (C), 2002-2019, T. Ozaki                    
 OpenMX comes with ABSOLUTELY NO WARRANTY.             
 This is free software, and you are welcome to         
 redistribute it under the constitution of the GNU-GPL.
*******************************************************
*******************************************************

Automatic determination of Kerker_factor:   3.992945286074


<Input_std>  Your input file was normally read.
<Input_std>  The system includes 2 species and 132 atoms.

*******************************************************
                     PAO and VPS                       
*******************************************************

<SetPara_DFT>  PAOs of species C were normally found.
<SetPara_DFT>  PAOs of species O were normally found.
<SetPara_DFT>  VPSs of species C were normally found.
               C_PBE19.vps is j-dependent.
               In case of scf.SpinOrbit.Coupling=off,
               j-dependent pseudo potentials are averaged by j-degeneracy,
               which corresponds to a scalar relativistic treatment.
<SetPara_DFT>  VPSs of species O were normally found.
               O_PBE19.vps is j-dependent.
               In case of scf.SpinOrbit.Coupling=off,
               j-dependent pseudo potentials are averaged by j-degeneracy,
               which corresponds to a scalar relativistic treatment.

*******************************************************
     Fourier transform of PAO and projectors of VNL    
*******************************************************

<FT_PAO>          Fourier transform of pseudo atomic orbitals
<FT_NLP>          Fourier transform of non-local projectors
<FT_ProExpn_VNA>  Fourier transform of VNA separable projectors
<FT_VNA>          Fourier transform of VNA potentials
<FT_ProductPAO>   Fourier transform of product of PAOs

*******************************************************
  Allocation of atoms to processors at MD_iter=    1     
*******************************************************

 proc =   0  # of atoms=   2  estimated weight=         2.00000
 proc =   1  # of atoms=   2  estimated weight=         2.00000
 proc =   2  # of atoms=   2  estimated weight=         2.00000
 proc =   3  # of atoms=   2  estimated weight=         2.00000
 proc =   4  # of atoms=   2  estimated weight=         2.00000
 proc =   5  # of atoms=   2  estimated weight=         2.00000
 proc =   6  # of atoms=   2  estimated weight=         2.00000
 proc =   7  # of atoms=   2  estimated weight=         2.00000
 proc =   8  # of atoms=   2  estimated weight=         2.00000
 proc =   9  # of atoms=   2  estimated weight=         2.00000
 proc =  10  # of atoms=   2  estimated weight=         2.00000
 proc =  11  # of atoms=   2  estimated weight=         2.00000
 proc =  12  # of atoms=   2  estimated weight=         2.00000
 proc =  13  # of atoms=   2  estimated weight=         2.00000
 proc =  14  # of atoms=   2  estimated weight=         2.00000
 proc =  15  # of atoms=   3  estimated weight=         3.00000
 proc =  16  # of atoms=   2  estimated weight=         2.00000
 proc =  17  # of atoms=   2  estimated weight=         2.00000
 proc =  18  # of atoms=   2  estimated weight=         2.00000
 proc =  19  # of atoms=   2  estimated weight=         2.00000
 proc =  20  # of atoms=   2  estimated weight=         2.00000
 proc =  21  # of atoms=   2  estimated weight=         2.00000
 proc =  22  # of atoms=   2  estimated weight=         2.00000
 proc =  23  # of atoms=   2  estimated weight=         2.00000
 proc =  24  # of atoms=   2  estimated weight=         2.00000
 proc =  25  # of atoms=   2  estimated weight=         2.00000
 proc =  26  # of atoms=   2  estimated weight=         2.00000
 proc =  27  # of atoms=   2  estimated weight=         2.00000
 proc =  28  # of atoms=   2  estimated weight=         2.00000
 proc =  29  # of atoms=   2  estimated weight=         2.00000
 proc =  30  # of atoms=   2  estimated weight=         2.00000
 proc =  31  # of atoms=   3  estimated weight=         3.00000
 proc =  32  # of atoms=   2  estimated weight=         2.00000
 proc =  33  # of atoms=   2  estimated weight=         2.00000
 proc =  34  # of atoms=   2  estimated weight=         2.00000
 proc =  35  # of atoms=   2  estimated weight=         2.00000
 proc =  36  # of atoms=   2  estimated weight=         2.00000
 proc =  37  # of atoms=   2  estimated weight=         2.00000
 proc =  38  # of atoms=   2  estimated weight=         2.00000
 proc =  39  # of atoms=   2  estimated weight=         2.00000
 proc =  40  # of atoms=   2  estimated weight=         2.00000
 proc =  41  # of atoms=   2  estimated weight=         2.00000
 proc =  42  # of atoms=   2  estimated weight=         2.00000
 proc =  43  # of atoms=   2  estimated weight=         2.00000
 proc =  44  # of atoms=   2  estimated weight=         2.00000
 proc =  45  # of atoms=   2  estimated weight=         2.00000
 proc =  46  # of atoms=   2  estimated weight=         2.00000
 proc =  47  # of atoms=   3  estimated weight=         3.00000
 proc =  48  # of atoms=   2  estimated weight=         2.00000
 proc =  49  # of atoms=   2  estimated weight=         2.00000
 proc =  50  # of atoms=   2  estimated weight=         2.00000
 proc =  51  # of atoms=   2  estimated weight=         2.00000
 proc =  52  # of atoms=   2  estimated weight=         2.00000
 proc =  53  # of atoms=   2  estimated weight=         2.00000
 proc =  54  # of atoms=   2  estimated weight=         2.00000
 proc =  55  # of atoms=   2  estimated weight=         2.00000
 proc =  56  # of atoms=   2  estimated weight=         2.00000
 proc =  57  # of atoms=   2  estimated weight=         2.00000
 proc =  58  # of atoms=   2  estimated weight=         2.00000
 proc =  59  # of atoms=   2  estimated weight=         2.00000
 proc =  60  # of atoms=   2  estimated weight=         2.00000
 proc =  61  # of atoms=   2  estimated weight=         2.00000
 proc =  62  # of atoms=   2  estimated weight=         2.00000
 proc =  63  # of atoms=   3  estimated weight=         3.00000




*******************************************************
        Analysis of neighbors and setting of grids        
*******************************************************

TFNAN=    5916   Average FNAN=  44.81818
TSNAN=       0   Average SNAN=   0.00000
<truncation> CpyCell= 1 ct_AN=   1 FNAN SNAN  45   0
<truncation> CpyCell= 1 ct_AN=   2 FNAN SNAN  45   0
<truncation> CpyCell= 1 ct_AN=   3 FNAN SNAN  45   0
<truncation> CpyCell= 1 ct_AN=   4 FNAN SNAN  45   0
<truncation> CpyCell= 1 ct_AN=   5 FNAN SNAN  45   0
<truncation> CpyCell= 1 ct_AN=   6 FNAN SNAN  45   0
<truncation> CpyCell= 1 ct_AN=   7 FNAN SNAN  45   0
<truncation> CpyCell= 1 ct_AN=   8 FNAN SNAN  45   0
<truncation> CpyCell= 1 ct_AN=   9 FNAN SNAN  45   0
<truncation> CpyCell= 1 ct_AN=  10 FNAN SNAN  46   0
<truncation> CpyCell= 1 ct_AN=  11 FNAN SNAN  46   0
<truncation> CpyCell= 1 ct_AN=  12 FNAN SNAN  46   0
<truncation> CpyCell= 1 ct_AN=  13 FNAN SNAN  45   0
<truncation> CpyCell= 1 ct_AN=  14 FNAN SNAN  45   0
<truncation> CpyCell= 1 ct_AN=  15 FNAN SNAN  45   0
<truncation> CpyCell= 1 ct_AN=  16 FNAN SNAN  45   0
<truncation> CpyCell= 1 ct_AN=  17 FNAN SNAN  45   0
<truncation> CpyCell= 1 ct_AN=  18 FNAN SNAN  46   0
<truncation> CpyCell= 1 ct_AN=  19 FNAN SNAN  47   0
<truncation> CpyCell= 1 ct_AN=  20 FNAN SNAN  47   0
     ..........
     ......

TFNAN=    5916   Average FNAN=  44.81818
TSNAN=       0   Average SNAN=   0.00000
<truncation> CpyCell= 2 ct_AN=   1 FNAN SNAN  45   0
<truncation> CpyCell= 2 ct_AN=   2 FNAN SNAN  45   0
<truncation> CpyCell= 2 ct_AN=   3 FNAN SNAN  45   0
<truncation> CpyCell= 2 ct_AN=   4 FNAN SNAN  45   0
<truncation> CpyCell= 2 ct_AN=   5 FNAN SNAN  45   0
<truncation> CpyCell= 2 ct_AN=   6 FNAN SNAN  45   0
<truncation> CpyCell= 2 ct_AN=   7 FNAN SNAN  45   0
<truncation> CpyCell= 2 ct_AN=   8 FNAN SNAN  45   0
<truncation> CpyCell= 2 ct_AN=   9 FNAN SNAN  45   0
<truncation> CpyCell= 2 ct_AN=  10 FNAN SNAN  46   0
<truncation> CpyCell= 2 ct_AN=  11 FNAN SNAN  46   0
<truncation> CpyCell= 2 ct_AN=  12 FNAN SNAN  46   0
<truncation> CpyCell= 2 ct_AN=  13 FNAN SNAN  45   0
<truncation> CpyCell= 2 ct_AN=  14 FNAN SNAN  45   0
<truncation> CpyCell= 2 ct_AN=  15 FNAN SNAN  45   0
<truncation> CpyCell= 2 ct_AN=  16 FNAN SNAN  45   0
<truncation> CpyCell= 2 ct_AN=  17 FNAN SNAN  45   0
<truncation> CpyCell= 2 ct_AN=  18 FNAN SNAN  46   0
<truncation> CpyCell= 2 ct_AN=  19 FNAN SNAN  47   0
<truncation> CpyCell= 2 ct_AN=  20 FNAN SNAN  47   0
     ..........
     ......

TFNAN=    5916   Average FNAN=  44.81818
TSNAN=       0   Average SNAN=   0.00000
<truncation> CpyCell= 2 ct_AN=   1 FNAN SNAN  45   0
<truncation> CpyCell= 2 ct_AN=   2 FNAN SNAN  45   0
<truncation> CpyCell= 2 ct_AN=   3 FNAN SNAN  45   0
<truncation> CpyCell= 2 ct_AN=   4 FNAN SNAN  45   0
<truncation> CpyCell= 2 ct_AN=   5 FNAN SNAN  45   0
<truncation> CpyCell= 2 ct_AN=   6 FNAN SNAN  45   0
<truncation> CpyCell= 2 ct_AN=   7 FNAN SNAN  45   0
<truncation> CpyCell= 2 ct_AN=   8 FNAN SNAN  45   0
<truncation> CpyCell= 2 ct_AN=   9 FNAN SNAN  45   0
<truncation> CpyCell= 2 ct_AN=  10 FNAN SNAN  46   0
<truncation> CpyCell= 2 ct_AN=  11 FNAN SNAN  46   0
<truncation> CpyCell= 2 ct_AN=  12 FNAN SNAN  46   0
<truncation> CpyCell= 2 ct_AN=  13 FNAN SNAN  45   0
<truncation> CpyCell= 2 ct_AN=  14 FNAN SNAN  45   0
<truncation> CpyCell= 2 ct_AN=  15 FNAN SNAN  45   0
<truncation> CpyCell= 2 ct_AN=  16 FNAN SNAN  45   0
<truncation> CpyCell= 2 ct_AN=  17 FNAN SNAN  45   0
<truncation> CpyCell= 2 ct_AN=  18 FNAN SNAN  46   0
<truncation> CpyCell= 2 ct_AN=  19 FNAN SNAN  47   0
<truncation> CpyCell= 2 ct_AN=  20 FNAN SNAN  47   0
     ..........
     ......

<Check_System> The system is slab.
lattice vectors (bohr)
A  = 37.299978480367,  0.000000000000,  0.000000000000
B  = -18.649989240184, 32.302728872609,  0.000000000000
C  =  0.000000000000,  0.000000000000, 39.684245760157
reciprocal lattice vectors (bohr^-1)
RA =  0.168450105420,  0.097254713866, -0.000000000000
RB =  0.000000000000,  0.194509427732,  0.000000000000
RC =  0.000000000000, -0.000000000000,  0.158329462658
Grid_Origin  0.051812596392  0.089737180945  0.356551991562
Cell_Volume =  47815.194201431834 (Bohr^3)
GridVol     =      0.006832303698 (Bohr^3)
Grid_Origin  0.051812596392  0.089737180945  0.356551991562
Cell_Volume =  47815.194201431834 (Bohr^3)
GridVol     =      0.006832303698 (Bohr^3)
<UCell_Box> Info. of cutoff energy and num. of grids
lattice vectors (bohr)
A  = 37.299978480367,  0.000000000000,  0.000000000000
B  = -18.649989240184, 32.302728872609,  0.000000000000
C  =  0.000000000000,  0.000000000000, 39.684245760157
reciprocal lattice vectors (bohr^-1)
RA =  0.168450105420,  0.097254713866, -0.000000000000
RB =  0.000000000000,  0.194509427732,  0.000000000000
RC =  0.000000000000, -0.000000000000,  0.158329462658
Required cutoff energy (Ryd) for 3D-grids = 300.0000
    Used cutoff energy (Ryd) for 3D-grids = 306.4547, 306.4547, 292.3957
Num. of grids of a-, b-, and c-axes = 180, 180, 216
Grid_Origin  0.051812596392  0.089737180945  0.356551991562
Cell_Volume =  47815.194201431834 (Bohr^3)
GridVol     =      0.006832303698 (Bohr^3)
Cell vectors (bohr) of the grid cell (gtv)
  gtv_a =  0.207222102669,  0.000000000000,  0.000000000000
  gtv_b = -0.103611051334,  0.179459604848,  0.000000000000
  gtv_c =  0.000000000000,  0.000000000000,  0.183723360001
  |gtv_a| =  0.207222102669
  |gtv_b| =  0.207222102419
  |gtv_c| =  0.183723360001
Num. of grids overlapping with atom    1 = 132410
Num. of grids overlapping with atom    2 = 132458
Num. of grids overlapping with atom    3 = 132386
Num. of grids overlapping with atom    4 = 132434
Num. of grids overlapping with atom    5 = 132397
Num. of grids overlapping with atom    6 = 132508
Num. of grids overlapping with atom    7 = 132403
Num. of grids overlapping with atom    8 = 132517
Num. of grids overlapping with atom    9 = 132396
Num. of grids overlapping with atom   10 = 132404
Num. of grids overlapping with atom   11 = 132398
Num. of grids overlapping with atom   12 = 132379
Num. of grids overlapping with atom   13 = 132417
Num. of grids overlapping with atom   14 = 132398
Num. of grids overlapping with atom   15 = 132430
Num. of grids overlapping with atom   16 = 132445
Num. of grids overlapping with atom   17 = 132427
Num. of grids overlapping with atom   18 = 132494
Num. of grids overlapping with atom   19 = 132383
Num. of grids overlapping with atom   20 = 132432
     ..........
     ......


*******************************************************
             SCF calculation at MD = 1                
*******************************************************

<MD= 1>  Calculation of the overlap matrix
<MD= 1>  Calculation of the nonlocal matrix
<MD= 1>  Calculation of the VNA projector matrix

******************* MD= 1  SCF= 1 *******************
<Band>  Solving the eigenvalue problem...
 KGrids1:  -0.43750  -0.31250  -0.18750  -0.06250   0.06250   0.18750   0.31250   0.43750 
 KGrids2:  -0.43750  -0.31250  -0.18750  -0.06250   0.06250   0.18750   0.31250   0.43750 
 KGrids3:   0.00000 
<Band_DFT>  Eigen, time=24.445483
<Band_DFT>  DM, time=0.000006
    1    C  MulP   1.9991  1.9991 sum   3.9982
    2    C  MulP   1.9995  1.9995 sum   3.9990
    3    C  MulP   1.9977  1.9977 sum   3.9954
    4    C  MulP   1.9999  1.9999 sum   3.9998
    5    C  MulP   1.9996  1.9996 sum   3.9993
    6    C  MulP   1.9992  1.9992 sum   3.9983
    7    C  MulP   1.9997  1.9997 sum   3.9994
    8    C  MulP   1.9995  1.9995 sum   3.9990
    9    C  MulP   1.9997  1.9997 sum   3.9994
   10    C  MulP   1.9995  1.9995 sum   3.9989
   11    C  MulP   1.9951  1.9951 sum   3.9903
   12    C  MulP   1.9999  1.9999 sum   3.9999
   13    C  MulP   1.9988  1.9988 sum   3.9976
   14    C  MulP   1.9999  1.9999 sum   3.9997
   15    C  MulP   1.9997  1.9997 sum   3.9994
   16    C  MulP   1.9992  1.9992 sum   3.9985
   17    C  MulP   1.9996  1.9996 sum   3.9993
   18    C  MulP   1.9967  1.9967 sum   3.9933
   19    C  MulP   2.0002  2.0002 sum   4.0005
   20    C  MulP   1.9914  1.9914 sum   3.9829
     ..........
     ......

 Sum of MulP: up   =   267.00000 down          =   267.00000
              total=   534.00000 ideal(neutral)=   534.00000
<DFT>  Total Spin Moment (muB) =  0.000000000000
<DFT>  Mixing_weight= 0.050000000000
<DFT>  Uele   = -220.444184878405  dUele     =   1.000000000000
<DFT>  NormRD =    1.000000000000  Criterion =   0.000000010000

******************* MD= 1  SCF= 2 *******************
<Poisson>  Poisson's equation using FFT...
<Set_Hamiltonian>  Hamiltonian matrix for VNA+dVH+Vxc...
<Band>  Solving the eigenvalue problem...
 KGrids1:  -0.43750  -0.31250  -0.18750  -0.06250   0.06250   0.18750   0.31250   0.43750 
 KGrids2:  -0.43750  -0.31250  -0.18750  -0.06250   0.06250   0.18750   0.31250   0.43750 
 KGrids3:   0.00000 
<Band_DFT>  Eigen, time=14.103397
<Band_DFT>  DM, time=0.000001
    1    C  MulP   1.9991  1.9991 sum   3.9982
    2    C  MulP   1.9995  1.9995 sum   3.9990
    3    C  MulP   1.9977  1.9977 sum   3.9954
    4    C  MulP   1.9999  1.9999 sum   3.9998
    5    C  MulP   1.9996  1.9996 sum   3.9993
    6    C  MulP   1.9992  1.9992 sum   3.9983
    7    C  MulP   1.9997  1.9997 sum   3.9994
    8    C  MulP   1.9995  1.9995 sum   3.9990
    9    C  MulP   1.9997  1.9997 sum   3.9994
   10    C  MulP   1.9995  1.9995 sum   3.9989
   11    C  MulP   1.9951  1.9951 sum   3.9903
   12    C  MulP   1.9999  1.9999 sum   3.9999
   13    C  MulP   1.9988  1.9988 sum   3.9976
   14    C  MulP   1.9999  1.9999 sum   3.9997
   15    C  MulP   1.9997  1.9997 sum   3.9994
   16    C  MulP   1.9992  1.9992 sum   3.9985
   17    C  MulP   1.9996  1.9996 sum   3.9993
   18    C  MulP   1.9967  1.9967 sum   3.9933
   19    C  MulP   2.0002  2.0002 sum   4.0005
   20    C  MulP   1.9914  1.9914 sum   3.9829
     ..........
     ......

 Sum of MulP: up   =   267.00000 down          =   267.00000
              total=   534.00000 ideal(neutral)=   534.00000
<DFT>  Total Spin Moment (muB) =  0.000000000000
<DFT>  Mixing_weight= 0.010000000000
<DFT>  Uele   = -220.444184878405  dUele     =   0.000000000000
<DFT>  NormRD =   10.497704889263  Criterion =   0.000000010000

******************* MD= 1  SCF= 3 *******************
<Poisson>  Poisson's equation using FFT...
<Set_Hamiltonian>  Hamiltonian matrix for VNA+dVH+Vxc...
<Band>  Solving the eigenvalue problem...
 KGrids1:  -0.43750  -0.31250  -0.18750  -0.06250   0.06250   0.18750   0.31250   0.43750 
 KGrids2:  -0.43750  -0.31250  -0.18750  -0.06250   0.06250   0.18750   0.31250   0.43750 
 KGrids3:   0.00000 
<Band_DFT>  Eigen, time=14.113085
<Band_DFT>  DM, time=0.000001
    1    C  MulP   1.9991  1.9991 sum   3.9982
    2    C  MulP   1.9995  1.9995 sum   3.9990
    3    C  MulP   1.9978  1.9978 sum   3.9955
    4    C  MulP   1.9999  1.9999 sum   3.9998
    5    C  MulP   1.9996  1.9996 sum   3.9993
    6    C  MulP   1.9992  1.9992 sum   3.9984
    7    C  MulP   1.9997  1.9997 sum   3.9994
    8    C  MulP   1.9995  1.9995 sum   3.9990
    9    C  MulP   1.9997  1.9997 sum   3.9994
   10    C  MulP   1.9995  1.9995 sum   3.9989
   11    C  MulP   1.9953  1.9953 sum   3.9905
   12    C  MulP   1.9999  1.9999 sum   3.9999
   13    C  MulP   1.9988  1.9988 sum   3.9977
   14    C  MulP   1.9999  1.9999 sum   3.9997
   15    C  MulP   1.9997  1.9997 sum   3.9994
   16    C  MulP   1.9993  1.9993 sum   3.9985
   17    C  MulP   1.9996  1.9996 sum   3.9993
   18    C  MulP   1.9968  1.9968 sum   3.9935
   19    C  MulP   2.0003  2.0003 sum   4.0006
   20    C  MulP   1.9918  1.9918 sum   3.9835
     ..........
     ......

 Sum of MulP: up   =   267.00000 down          =   267.00000
              total=   534.00000 ideal(neutral)=   534.00000
<DFT>  Total Spin Moment (muB) =  0.000000000000
<DFT>  Mixing_weight= 0.300000000000
<DFT>  Uele   = -220.821363932433  dUele     =   0.377179054028
<DFT>  NormRD =   10.362630006052  Criterion =   0.000000010000

******************* MD= 1  SCF= 4 *******************
<Poisson>  Poisson's equation using FFT...
<Set_Hamiltonian>  Hamiltonian matrix for VNA+dVH+Vxc...
<Band>  Solving the eigenvalue problem...
 KGrids1:  -0.43750  -0.31250  -0.18750  -0.06250   0.06250   0.18750   0.31250   0.43750 
 KGrids2:  -0.43750  -0.31250  -0.18750  -0.06250   0.06250   0.18750   0.31250   0.43750 
 KGrids3:   0.00000 
<Band_DFT>  Eigen, time=14.071805
<Band_DFT>  DM, time=0.000000
    1    C  MulP   1.9996  1.9996 sum   3.9992
    2    C  MulP   1.9995  1.9995 sum   3.9990
    3    C  MulP   2.0000  2.0000 sum   4.0000
    4    C  MulP   1.9994  1.9994 sum   3.9988
    5    C  MulP   1.9998  1.9998 sum   3.9995
    6    C  MulP   1.9996  1.9996 sum   3.9993
    7    C  MulP   1.9998  1.9998 sum   3.9995
    8    C  MulP   1.9996  1.9996 sum   3.9991
    9    C  MulP   1.9998  1.9998 sum   3.9996
   10    C  MulP   1.9994  1.9994 sum   3.9989
   11    C  MulP   1.9989  1.9989 sum   3.9978
   12    C  MulP   2.0003  2.0003 sum   4.0006
   13    C  MulP   1.9996  1.9996 sum   3.9991
   14    C  MulP   1.9997  1.9997 sum   3.9994
   15    C  MulP   1.9998  1.9998 sum   3.9996
   16    C  MulP   1.9998  1.9998 sum   3.9996
   17    C  MulP   1.9998  1.9998 sum   3.9996
   18    C  MulP   1.9992  1.9992 sum   3.9983
   19    C  MulP   2.0031  2.0031 sum   4.0062
   20    C  MulP   2.0029  2.0029 sum   4.0058
     ..........
     ......

 Sum of MulP: up   =   267.00000 down          =   267.00000
              total=   534.00000 ideal(neutral)=   534.00000
<DFT>  Total Spin Moment (muB) =  0.000000000000
<DFT>  Mixing_weight= 0.300000000000
<DFT>  Uele   = -232.067759766861  dUele     =  11.246395834428
<DFT>  NormRD =    6.571443849941  Criterion =   0.000000010000

******************* MD= 1  SCF= 5 *******************
<Poisson>  Poisson's equation using FFT...
<Set_Hamiltonian>  Hamiltonian matrix for VNA+dVH+Vxc...
<Band>  Solving the eigenvalue problem...
 KGrids1:  -0.43750  -0.31250  -0.18750  -0.06250   0.06250   0.18750   0.31250   0.43750 
 KGrids2:  -0.43750  -0.31250  -0.18750  -0.06250   0.06250   0.18750   0.31250   0.43750 
 KGrids3:   0.00000 
<Band_DFT>  Eigen, time=14.363976
<Band_DFT>  DM, time=0.000001
    1    C  MulP   1.9997  1.9997 sum   3.9993
    2    C  MulP   1.9997  1.9997 sum   3.9993
    3    C  MulP   1.9999  1.9999 sum   3.9998
    4    C  MulP   1.9996  1.9996 sum   3.9992
    5    C  MulP   1.9999  1.9999 sum   3.9998
    6    C  MulP   1.9997  1.9997 sum   3.9994
    7    C  MulP   1.9998  1.9998 sum   3.9996
    8    C  MulP   1.9996  1.9996 sum   3.9992
    9    C  MulP   1.9999  1.9999 sum   3.9998
   10    C  MulP   1.9996  1.9996 sum   3.9991
   11    C  MulP   1.9989  1.9989 sum   3.9978
   12    C  MulP   2.0004  2.0004 sum   4.0007
   13    C  MulP   1.9998  1.9998 sum   3.9996
   14    C  MulP   1.9998  1.9998 sum   3.9996
   15    C  MulP   1.9998  1.9998 sum   3.9997
   16    C  MulP   1.9998  1.9998 sum   3.9997
   17    C  MulP   1.9999  1.9999 sum   3.9998
   18    C  MulP   1.9994  1.9994 sum   3.9989
   19    C  MulP   2.0034  2.0034 sum   4.0069
   20    C  MulP   2.0027  2.0027 sum   4.0054
     ..........
     ......

 Sum of MulP: up   =   267.00000 down          =   267.00000
              total=   534.00000 ideal(neutral)=   534.00000
<DFT>  Total Spin Moment (muB) =  0.000000000000
<DFT>  Mixing_weight= 0.300000000000
<DFT>  Uele   = -239.686424081757  dUele     =   7.618664314897
<DFT>  NormRD =    4.439085533470  Criterion =   0.000000010000

******************* MD= 1  SCF= 6 *******************
<Poisson>  Poisson's equation using FFT...
<Set_Hamiltonian>  Hamiltonian matrix for VNA+dVH+Vxc...
<Band>  Solving the eigenvalue problem...
 KGrids1:  -0.43750  -0.31250  -0.18750  -0.06250   0.06250   0.18750   0.31250   0.43750 
 KGrids2:  -0.43750  -0.31250  -0.18750  -0.06250   0.06250   0.18750   0.31250   0.43750 
 KGrids3:   0.00000 
<Band_DFT>  Eigen, time=14.095704
<Band_DFT>  DM, time=0.000000
    1    C  MulP   1.9997  1.9997 sum   3.9994
    2    C  MulP   1.9997  1.9997 sum   3.9994
    3    C  MulP   1.9997  1.9997 sum   3.9994
    4    C  MulP   1.9997  1.9997 sum   3.9994
    5    C  MulP   2.0000  2.0000 sum   4.0000
    6    C  MulP   1.9997  1.9997 sum   3.9995
    7    C  MulP   1.9998  1.9998 sum   3.9997
    8    C  MulP   1.9997  1.9997 sum   3.9993
    9    C  MulP   1.9999  1.9999 sum   3.9999
   10    C  MulP   1.9996  1.9996 sum   3.9992
   11    C  MulP   1.9987  1.9987 sum   3.9973
   12    C  MulP   2.0003  2.0003 sum   4.0007
   13    C  MulP   1.9999  1.9999 sum   3.9997
   14    C  MulP   1.9999  1.9999 sum   3.9997
   15    C  MulP   1.9999  1.9999 sum   3.9998
   16    C  MulP   1.9999  1.9999 sum   3.9998
   17    C  MulP   1.9999  1.9999 sum   3.9999
   18    C  MulP   1.9994  1.9994 sum   3.9989
   19    C  MulP   2.0033  2.0033 sum   4.0066
   20    C  MulP   2.0019  2.0019 sum   4.0038
     ..........
     ......

 Sum of MulP: up   =   267.00000 down          =   267.00000
              total=   534.00000 ideal(neutral)=   534.00000
<DFT>  Total Spin Moment (muB) =  0.000000000000
<DFT>  Mixing_weight= 0.300000000000
<DFT>  Uele   = -244.707937451077  dUele     =   5.021513369320
<DFT>  NormRD =    3.024598738211  Criterion =   0.000000010000

******************* MD= 1  SCF= 7 *******************
<Poisson>  Poisson's equation using FFT...
<Set_Hamiltonian>  Hamiltonian matrix for VNA+dVH+Vxc...
<Band>  Solving the eigenvalue problem...
 KGrids1:  -0.43750  -0.31250  -0.18750  -0.06250   0.06250   0.18750   0.31250   0.43750 
 KGrids2:  -0.43750  -0.31250  -0.18750  -0.06250   0.06250   0.18750   0.31250   0.43750 
 KGrids3:   0.00000 
<Band_DFT>  Eigen, time=14.145433
<Band_DFT>  DM, time=0.000000
    1    C  MulP   1.9997  1.9997 sum   3.9994
    2    C  MulP   1.9997  1.9997 sum   3.9994
    3    C  MulP   1.9997  1.9997 sum   3.9994
    4    C  MulP   1.9997  1.9997 sum   3.9994
    5    C  MulP   2.0000  2.0000 sum   4.0000
    6    C  MulP   1.9998  1.9998 sum   3.9996
    7    C  MulP   1.9999  1.9999 sum   3.9998
    8    C  MulP   1.9997  1.9997 sum   3.9994
    9    C  MulP   2.0000  2.0000 sum   3.9999
   10    C  MulP   1.9996  1.9996 sum   3.9992
   11    C  MulP   1.9986  1.9986 sum   3.9973
   12    C  MulP   2.0003  2.0003 sum   4.0006
   13    C  MulP   1.9999  1.9999 sum   3.9998
   14    C  MulP   1.9999  1.9999 sum   3.9998
   15    C  MulP   1.9999  1.9999 sum   3.9999
   16    C  MulP   1.9999  1.9999 sum   3.9998
   17    C  MulP   2.0000  2.0000 sum   3.9999
   18    C  MulP   1.9995  1.9995 sum   3.9989
   19    C  MulP   2.0033  2.0033 sum   4.0065
   20    C  MulP   2.0016  2.0016 sum   4.0032
     ..........
     ......

 Sum of MulP: up   =   267.00000 down          =   267.00000
              total=   534.00000 ideal(neutral)=   534.00000
<DFT>  Total Spin Moment (muB) =  0.000000000000
<DFT>  Mixing_weight= 0.300000000000
<DFT>  Uele   = -248.058953283793  dUele     =   3.351015832716
<DFT>  NormRD =    2.071108827599  Criterion =   0.000000010000

******************* MD= 1  SCF= 8 *******************
<Poisson>  Poisson's equation using FFT...
<Set_Hamiltonian>  Hamiltonian matrix for VNA+dVH+Vxc...
<Band>  Solving the eigenvalue problem...
 KGrids1:  -0.43750  -0.31250  -0.18750  -0.06250   0.06250   0.18750   0.31250   0.43750 
 KGrids2:  -0.43750  -0.31250  -0.18750  -0.06250   0.06250   0.18750   0.31250   0.43750 
 KGrids3:   0.00000 
<Band_DFT>  Eigen, time=14.105729
<Band_DFT>  DM, time=0.000000
    1    C  MulP   1.9997  1.9997 sum   3.9995
    2    C  MulP   1.9997  1.9997 sum   3.9995
    3    C  MulP   1.9997  1.9997 sum   3.9994
    4    C  MulP   1.9997  1.9997 sum   3.9994
    5    C  MulP   2.0000  2.0000 sum   4.0000
    6    C  MulP   1.9998  1.9998 sum   3.9996
    7    C  MulP   1.9999  1.9999 sum   3.9998
    8    C  MulP   1.9997  1.9997 sum   3.9994
    9    C  MulP   2.0000  2.0000 sum   4.0000
   10    C  MulP   1.9996  1.9996 sum   3.9993
   11    C  MulP   1.9986  1.9986 sum   3.9973
   12    C  MulP   2.0003  2.0003 sum   4.0007
   13    C  MulP   1.9999  1.9999 sum   3.9999
   14    C  MulP   1.9999  1.9999 sum   3.9998
   15    C  MulP   1.9999  1.9999 sum   3.9999
   16    C  MulP   1.9999  1.9999 sum   3.9998
   17    C  MulP   2.0000  2.0000 sum   3.9999
   18    C  MulP   1.9995  1.9995 sum   3.9990
   19    C  MulP   2.0033  2.0033 sum   4.0065
   20    C  MulP   2.0015  2.0015 sum   4.0029
     ..........
     ......

 Sum of MulP: up   =   267.00000 down          =   267.00000
              total=   534.00000 ideal(neutral)=   534.00000
<DFT>  Total Spin Moment (muB) =  0.000000000000
<DFT>  Mixing_weight= 0.300000000000
<DFT>  Uele   = -250.352399618143  dUele     =   2.293446334350
<DFT>  NormRD =    1.424385343972  Criterion =   0.000000010000

******************* MD= 1  SCF= 9 *******************
<Poisson>  Poisson's equation using FFT...
<Set_Hamiltonian>  Hamiltonian matrix for VNA+dVH+Vxc...
<Band>  Solving the eigenvalue problem...
 KGrids1:  -0.43750  -0.31250  -0.18750  -0.06250   0.06250   0.18750   0.31250   0.43750 
 KGrids2:  -0.43750  -0.31250  -0.18750  -0.06250   0.06250   0.18750   0.31250   0.43750 
 KGrids3:   0.00000 
<Band_DFT>  Eigen, time=14.098207
<Band_DFT>  DM, time=0.000000
    1    C  MulP   1.9997  1.9997 sum   3.9995
    2    C  MulP   1.9998  1.9998 sum   3.9995
    3    C  MulP   1.9997  1.9997 sum   3.9994
    4    C  MulP   1.9997  1.9997 sum   3.9995
    5    C  MulP   2.0000  2.0000 sum   4.0000
    6    C  MulP   1.9998  1.9998 sum   3.9996
    7    C  MulP   1.9999  1.9999 sum   3.9998
    8    C  MulP   1.9997  1.9997 sum   3.9994
    9    C  MulP   2.0000  2.0000 sum   4.0000
   10    C  MulP   1.9996  1.9996 sum   3.9993
   11    C  MulP   1.9986  1.9986 sum   3.9973
   12    C  MulP   2.0003  2.0003 sum   4.0007
   13    C  MulP   1.9999  1.9999 sum   3.9999
   14    C  MulP   1.9999  1.9999 sum   3.9999
   15    C  MulP   2.0000  2.0000 sum   3.9999
   16    C  MulP   1.9999  1.9999 sum   3.9999
   17    C  MulP   2.0000  2.0000 sum   4.0000
   18    C  MulP   1.9995  1.9995 sum   3.9990
   19    C  MulP   2.0032  2.0032 sum   4.0065
   20    C  MulP   2.0014  2.0014 sum   4.0028
     ..........
     ......

 Sum of MulP: up   =   267.00000 down          =   267.00000
              total=   534.00000 ideal(neutral)=   534.00000
<DFT>  Total Spin Moment (muB) =  0.000000000000
<DFT>  Mixing_weight= 0.300000000000
<DFT>  Uele   = -251.967558432856  dUele     =   1.615158814713
<DFT>  NormRD =    0.983327523380  Criterion =   0.000000010000

******************* MD= 1  SCF=10 *******************
<Poisson>  Poisson's equation using FFT...
<Set_Hamiltonian>  Hamiltonian matrix for VNA+dVH+Vxc...
<Band>  Solving the eigenvalue problem...
 KGrids1:  -0.43750  -0.31250  -0.18750  -0.06250   0.06250   0.18750   0.31250   0.43750 
 KGrids2:  -0.43750  -0.31250  -0.18750  -0.06250   0.06250   0.18750   0.31250   0.43750 
 KGrids3:   0.00000 
<Band_DFT>  Eigen, time=14.117616
<Band_DFT>  DM, time=0.000001
    1    C  MulP   1.9997  1.9997 sum   3.9995
    2    C  MulP   1.9998  1.9998 sum   3.9995
    3    C  MulP   1.9997  1.9997 sum   3.9994
    4    C  MulP   1.9997  1.9997 sum   3.9995
    5    C  MulP   2.0000  2.0000 sum   4.0000
    6    C  MulP   1.9998  1.9998 sum   3.9996
    7    C  MulP   1.9999  1.9999 sum   3.9998
    8    C  MulP   1.9997  1.9997 sum   3.9995
    9    C  MulP   2.0000  2.0000 sum   4.0000
   10    C  MulP   1.9996  1.9996 sum   3.9993
   11    C  MulP   1.9986  1.9986 sum   3.9973
   12    C  MulP   2.0003  2.0003 sum   4.0007
   13    C  MulP   1.9999  1.9999 sum   3.9999
   14    C  MulP   1.9999  1.9999 sum   3.9999
   15    C  MulP   2.0000  2.0000 sum   3.9999
   16    C  MulP   1.9999  1.9999 sum   3.9999
   17    C  MulP   2.0000  2.0000 sum   4.0000
   18    C  MulP   1.9995  1.9995 sum   3.9990
   19    C  MulP   2.0032  2.0032 sum   4.0065
   20    C  MulP   2.0013  2.0013 sum   4.0027
     ..........
     ......

 Sum of MulP: up   =   267.00000 down          =   267.00000
              total=   534.00000 ideal(neutral)=   534.00000
<DFT>  Total Spin Moment (muB) =  0.000000000000
<DFT>  Mixing_weight= 0.300000000000
<DFT>  Uele   = -253.139671773107  dUele     =   1.172113340251
<DFT>  NormRD =    0.681157865044  Criterion =   0.000000010000

******************* MD= 1  SCF=11 *******************
<Poisson>  Poisson's equation using FFT...
<Set_Hamiltonian>  Hamiltonian matrix for VNA+dVH+Vxc...
<Band>  Solving the eigenvalue problem...
 KGrids1:  -0.43750  -0.31250  -0.18750  -0.06250   0.06250   0.18750   0.31250   0.43750 
 KGrids2:  -0.43750  -0.31250  -0.18750  -0.06250   0.06250   0.18750   0.31250   0.43750 
 KGrids3:   0.00000 
<Band_DFT>  Eigen, time=14.082367
<Band_DFT>  DM, time=0.000001
    1    C  MulP   1.9998  1.9998 sum   3.9995
    2    C  MulP   1.9998  1.9998 sum   3.9995
    3    C  MulP   1.9997  1.9997 sum   3.9994
    4    C  MulP   1.9997  1.9997 sum   3.9995
    5    C  MulP   2.0000  2.0000 sum   4.0001
    6    C  MulP   1.9998  1.9998 sum   3.9996
    7    C  MulP   1.9999  1.9999 sum   3.9999
    8    C  MulP   1.9997  1.9997 sum   3.9995
    9    C  MulP   2.0000  2.0000 sum   4.0000
   10    C  MulP   1.9997  1.9997 sum   3.9993
   11    C  MulP   1.9986  1.9986 sum   3.9973
   12    C  MulP   2.0003  2.0003 sum   4.0007
   13    C  MulP   2.0000  2.0000 sum   3.9999
   14    C  MulP   1.9999  1.9999 sum   3.9999
   15    C  MulP   2.0000  2.0000 sum   3.9999
   16    C  MulP   1.9999  1.9999 sum   3.9999
   17    C  MulP   2.0000  2.0000 sum   4.0000
   18    C  MulP   1.9995  1.9995 sum   3.9990
   19    C  MulP   2.0032  2.0032 sum   4.0065
   20    C  MulP   2.0013  2.0013 sum   4.0026
     ..........
     ......

 Sum of MulP: up   =   267.00000 down          =   267.00000
              total=   534.00000 ideal(neutral)=   534.00000
<DFT>  Total Spin Moment (muB) =  0.000000000000
<DFT>  Mixing_weight= 0.300000000000
<DFT>  Uele   = -254.016236706660  dUele     =   0.876564933554
<DFT>  NormRD =    0.473308247711  Criterion =   0.000000010000

******************* MD= 1  SCF=12 *******************
<Poisson>  Poisson's equation using FFT...
<Set_Hamiltonian>  Hamiltonian matrix for VNA+dVH+Vxc...
<Band>  Solving the eigenvalue problem...
 KGrids1:  -0.43750  -0.31250  -0.18750  -0.06250   0.06250   0.18750   0.31250   0.43750 
 KGrids2:  -0.43750  -0.31250  -0.18750  -0.06250   0.06250   0.18750   0.31250   0.43750 
 KGrids3:   0.00000 
<Band_DFT>  Eigen, time=14.121059
<Band_DFT>  DM, time=0.000000
    1    C  MulP   1.9998  1.9998 sum   3.9995
    2    C  MulP   1.9998  1.9998 sum   3.9995
    3    C  MulP   1.9997  1.9997 sum   3.9994
    4    C  MulP   1.9997  1.9997 sum   3.9995
    5    C  MulP   2.0000  2.0000 sum   4.0001
    6    C  MulP   1.9998  1.9998 sum   3.9996
    7    C  MulP   1.9999  1.9999 sum   3.9999
    8    C  MulP   1.9997  1.9997 sum   3.9995
    9    C  MulP   2.0000  2.0000 sum   4.0000
   10    C  MulP   1.9997  1.9997 sum   3.9993
   11    C  MulP   1.9987  1.9987 sum   3.9973
   12    C  MulP   2.0003  2.0003 sum   4.0007
   13    C  MulP   1.9999  1.9999 sum   3.9999
   14    C  MulP   2.0000  2.0000 sum   3.9999
   15    C  MulP   2.0000  2.0000 sum   3.9999
   16    C  MulP   1.9999  1.9999 sum   3.9999
   17    C  MulP   2.0000  2.0000 sum   4.0000
   18    C  MulP   1.9995  1.9995 sum   3.9990
   19    C  MulP   2.0032  2.0032 sum   4.0065
   20    C  MulP   2.0013  2.0013 sum   4.0026
     ..........
     ......

 Sum of MulP: up   =   267.00000 down          =   267.00000
              total=   534.00000 ideal(neutral)=   534.00000
<DFT>  Total Spin Moment (muB) =  0.000000000000
<DFT>  Mixing_weight= 0.300000000000
<DFT>  Uele   = -254.690725058254  dUele     =   0.674488351594
<DFT>  NormRD =    0.329905639664  Criterion =   0.000000010000

******************* MD= 1  SCF=13 *******************
<Poisson>  Poisson's equation using FFT...
<Set_Hamiltonian>  Hamiltonian matrix for VNA+dVH+Vxc...
<Band>  Solving the eigenvalue problem...
 KGrids1:  -0.43750  -0.31250  -0.18750  -0.06250   0.06250   0.18750   0.31250   0.43750 
 KGrids2:  -0.43750  -0.31250  -0.18750  -0.06250   0.06250   0.18750   0.31250   0.43750 
 KGrids3:   0.00000 
<Band_DFT>  Eigen, time=14.110419
<Band_DFT>  DM, time=0.000000
    1    C  MulP   1.9998  1.9998 sum   3.9995
    2    C  MulP   1.9998  1.9998 sum   3.9995
    3    C  MulP   1.9997  1.9997 sum   3.9994
    4    C  MulP   1.9997  1.9997 sum   3.9995
    5    C  MulP   2.0000  2.0000 sum   4.0001
    6    C  MulP   1.9998  1.9998 sum   3.9996
    7    C  MulP   1.9999  1.9999 sum   3.9999
    8    C  MulP   1.9997  1.9997 sum   3.9995
    9    C  MulP   2.0000  2.0000 sum   4.0000
   10    C  MulP   1.9997  1.9997 sum   3.9993
   11    C  MulP   1.9986  1.9986 sum   3.9973
   12    C  MulP   2.0003  2.0003 sum   4.0007
   13    C  MulP   2.0000  2.0000 sum   3.9999
   14    C  MulP   1.9999  1.9999 sum   3.9999
   15    C  MulP   2.0000  2.0000 sum   3.9999
   16    C  MulP   1.9999  1.9999 sum   3.9999
   17    C  MulP   2.0000  2.0000 sum   4.0000
   18    C  MulP   1.9995  1.9995 sum   3.9990
   19    C  MulP   2.0032  2.0032 sum   4.0065
   20    C  MulP   2.0013  2.0013 sum   4.0026
     ..........
     ......

 Sum of MulP: up   =   267.00000 down          =   267.00000
              total=   534.00000 ideal(neutral)=   534.00000
<DFT>  Total Spin Moment (muB) =  0.000000000000
<DFT>  Mixing_weight= 0.300000000000
<DFT>  Uele   = -255.223426105806  dUele     =   0.532701047552
<DFT>  NormRD =    0.230738680934  Criterion =   0.000000010000

******************* MD= 1  SCF=14 *******************
<Poisson>  Poisson's equation using FFT...
<Set_Hamiltonian>  Hamiltonian matrix for VNA+dVH+Vxc...
<Band>  Solving the eigenvalue problem...
 KGrids1:  -0.43750  -0.31250  -0.18750  -0.06250   0.06250   0.18750   0.31250   0.43750 
 KGrids2:  -0.43750  -0.31250  -0.18750  -0.06250   0.06250   0.18750   0.31250   0.43750 
 KGrids3:   0.00000 
<Band_DFT>  Eigen, time=14.370484
<Band_DFT>  DM, time=0.000000
    1    C  MulP   1.9998  1.9998 sum   3.9995
    2    C  MulP   1.9998  1.9998 sum   3.9995
    3    C  MulP   1.9997  1.9997 sum   3.9994
    4    C  MulP   1.9997  1.9997 sum   3.9995
    5    C  MulP   2.0000  2.0000 sum   4.0001
    6    C  MulP   1.9998  1.9998 sum   3.9996
    7    C  MulP   1.9999  1.9999 sum   3.9999
    8    C  MulP   1.9997  1.9997 sum   3.9995
    9    C  MulP   2.0000  2.0000 sum   4.0000
   10    C  MulP   1.9997  1.9997 sum   3.9993
   11    C  MulP   1.9986  1.9986 sum   3.9973
   12    C  MulP   2.0003  2.0003 sum   4.0007
   13    C  MulP   2.0000  2.0000 sum   3.9999
   14    C  MulP   2.0000  2.0000 sum   3.9999
   15    C  MulP   2.0000  2.0000 sum   3.9999
   16    C  MulP   2.0000  2.0000 sum   3.9999
   17    C  MulP   2.0000  2.0000 sum   4.0000
   18    C  MulP   1.9995  1.9995 sum   3.9990
   19    C  MulP   2.0032  2.0032 sum   4.0065
   20    C  MulP   2.0013  2.0013 sum   4.0026
     ..........
     ......

 Sum of MulP: up   =   267.00000 down          =   267.00000
              total=   534.00000 ideal(neutral)=   534.00000
<DFT>  Total Spin Moment (muB) =  0.000000000000
<DFT>  Mixing_weight= 0.300000000000
<DFT>  Uele   = -255.653861055008  dUele     =   0.430434949202
<DFT>  NormRD =    0.162034699443  Criterion =   0.000000010000

******************* MD= 1  SCF=15 *******************
<Poisson>  Poisson's equation using FFT...
<Set_Hamiltonian>  Hamiltonian matrix for VNA+dVH+Vxc...
<Band>  Solving the eigenvalue problem...
 KGrids1:  -0.43750  -0.31250  -0.18750  -0.06250   0.06250   0.18750   0.31250   0.43750 
 KGrids2:  -0.43750  -0.31250  -0.18750  -0.06250   0.06250   0.18750   0.31250   0.43750 
 KGrids3:   0.00000 
<Band_DFT>  Eigen, time=14.087822
<Band_DFT>  DM, time=0.000000
    1    C  MulP   1.9998  1.9998 sum   3.9995
    2    C  MulP   1.9998  1.9998 sum   3.9995
    3    C  MulP   1.9997  1.9997 sum   3.9994
    4    C  MulP   1.9997  1.9997 sum   3.9995
    5    C  MulP   2.0000  2.0000 sum   4.0001
    6    C  MulP   1.9998  1.9998 sum   3.9996
    7    C  MulP   1.9999  1.9999 sum   3.9999
    8    C  MulP   1.9997  1.9997 sum   3.9995
    9    C  MulP   2.0000  2.0000 sum   4.0000
   10    C  MulP   1.9997  1.9997 sum   3.9993
   11    C  MulP   1.9986  1.9986 sum   3.9973
   12    C  MulP   2.0003  2.0003 sum   4.0007
   13    C  MulP   2.0000  2.0000 sum   3.9999
   14    C  MulP   2.0000  2.0000 sum   3.9999
   15    C  MulP   2.0000  2.0000 sum   3.9999
   16    C  MulP   2.0000  2.0000 sum   3.9999
   17    C  MulP   2.0000  2.0000 sum   4.0000
   18    C  MulP   1.9995  1.9995 sum   3.9990
   19    C  MulP   2.0032  2.0032 sum   4.0065
   20    C  MulP   2.0013  2.0013 sum   4.0026
     ..........
     ......

 Sum of MulP: up   =   267.00000 down          =   267.00000
              total=   534.00000 ideal(neutral)=   534.00000
<DFT>  Total Spin Moment (muB) =  0.000000000000
<DFT>  Mixing_weight= 0.030000000000
<DFT>  Uele   = -256.008385461763  dUele     =   0.354524406754
<DFT>  NormRD =    0.115471073960  Criterion =   0.000000010000

******************* MD= 1  SCF=16 *******************
<Poisson>  Poisson's equation using FFT...
<Set_Hamiltonian>  Hamiltonian matrix for VNA+dVH+Vxc...
<Band>  Solving the eigenvalue problem...
 KGrids1:  -0.43750  -0.31250  -0.18750  -0.06250   0.06250   0.18750   0.31250   0.43750 
 KGrids2:  -0.43750  -0.31250  -0.18750  -0.06250   0.06250   0.18750   0.31250   0.43750 
 KGrids3:   0.00000 
<Band_DFT>  Eigen, time=14.131519
<Band_DFT>  DM, time=0.000000
    1    C  MulP   1.9998  1.9998 sum   3.9995
    2    C  MulP   1.9998  1.9998 sum   3.9995
    3    C  MulP   1.9997  1.9997 sum   3.9994
    4    C  MulP   1.9997  1.9997 sum   3.9995
    5    C  MulP   2.0000  2.0000 sum   4.0001
    6    C  MulP   1.9998  1.9998 sum   3.9996
    7    C  MulP   1.9999  1.9999 sum   3.9999
    8    C  MulP   1.9997  1.9997 sum   3.9995
    9    C  MulP   2.0000  2.0000 sum   4.0000
   10    C  MulP   1.9997  1.9997 sum   3.9993
   11    C  MulP   1.9986  1.9986 sum   3.9973
   12    C  MulP   2.0003  2.0003 sum   4.0007
   13    C  MulP   2.0000  2.0000 sum   3.9999
   14    C  MulP   2.0000  2.0000 sum   3.9999
   15    C  MulP   2.0000  2.0000 sum   4.0000
   16    C  MulP   2.0000  2.0000 sum   3.9999
   17    C  MulP   2.0000  2.0000 sum   4.0000
   18    C  MulP   1.9995  1.9995 sum   3.9990
   19    C  MulP   2.0033  2.0033 sum   4.0065
   20    C  MulP   2.0013  2.0013 sum   4.0026
     ..........
     ......

 Sum of MulP: up   =   267.00000 down          =   267.00000
              total=   534.00000 ideal(neutral)=   534.00000
<DFT>  Total Spin Moment (muB) =  0.000000000000
<DFT>  Mixing_weight= 0.030000000000
<DFT>  Uele   = -258.044367080105  dUele     =   2.035981618343
<DFT>  NormRD =    0.013704973247  Criterion =   0.000000010000

******************* MD= 1  SCF=17 *******************
<Poisson>  Poisson's equation using FFT...
<Set_Hamiltonian>  Hamiltonian matrix for VNA+dVH+Vxc...
<Band>  Solving the eigenvalue problem...
 KGrids1:  -0.43750  -0.31250  -0.18750  -0.06250   0.06250   0.18750   0.31250   0.43750 
 KGrids2:  -0.43750  -0.31250  -0.18750  -0.06250   0.06250   0.18750   0.31250   0.43750 
 KGrids3:   0.00000 
<Band_DFT>  Eigen, time=14.073247
<Band_DFT>  DM, time=0.000000
    1    C  MulP   1.9998  1.9998 sum   3.9995
    2    C  MulP   1.9998  1.9998 sum   3.9996
    3    C  MulP   1.9997  1.9997 sum   3.9994
    4    C  MulP   1.9998  1.9998 sum   3.9995
    5    C  MulP   2.0000  2.0000 sum   4.0001
    6    C  MulP   1.9998  1.9998 sum   3.9996
    7    C  MulP   1.9999  1.9999 sum   3.9999
    8    C  MulP   1.9997  1.9997 sum   3.9995
    9    C  MulP   2.0000  2.0000 sum   4.0000
   10    C  MulP   1.9997  1.9997 sum   3.9993
   11    C  MulP   1.9986  1.9986 sum   3.9973
   12    C  MulP   2.0004  2.0004 sum   4.0007
   13    C  MulP   2.0000  2.0000 sum   3.9999
   14    C  MulP   2.0000  2.0000 sum   3.9999
   15    C  MulP   2.0000  2.0000 sum   4.0000
   16    C  MulP   2.0000  2.0000 sum   3.9999
   17    C  MulP   2.0000  2.0000 sum   4.0000
   18    C  MulP   1.9995  1.9995 sum   3.9990
   19    C  MulP   2.0032  2.0032 sum   4.0065
   20    C  MulP   2.0013  2.0013 sum   4.0025
     ..........
     ......

 Sum of MulP: up   =   267.00000 down          =   267.00000
              total=   534.00000 ideal(neutral)=   534.00000
<DFT>  Total Spin Moment (muB) =  0.000000000000
<DFT>  Mixing_weight= 0.030000000000
<DFT>  Uele   = -258.218465920100  dUele     =   0.174098839995
<DFT>  NormRD =    0.014949672930  Criterion =   0.000000010000

******************* MD= 1  SCF=18 *******************
<Poisson>  Poisson's equation using FFT...
<Set_Hamiltonian>  Hamiltonian matrix for VNA+dVH+Vxc...
<Band>  Solving the eigenvalue problem...
 KGrids1:  -0.43750  -0.31250  -0.18750  -0.06250   0.06250   0.18750   0.31250   0.43750 
 KGrids2:  -0.43750  -0.31250  -0.18750  -0.06250   0.06250   0.18750   0.31250   0.43750 
 KGrids3:   0.00000 
<Band_DFT>  Eigen, time=14.113045
<Band_DFT>  DM, time=0.000000
    1    C  MulP   1.9998  1.9998 sum   3.9995
    2    C  MulP   1.9998  1.9998 sum   3.9995
    3    C  MulP   1.9997  1.9997 sum   3.9994
    4    C  MulP   1.9997  1.9997 sum   3.9995
    5    C  MulP   2.0000  2.0000 sum   4.0001
    6    C  MulP   1.9998  1.9998 sum   3.9996
    7    C  MulP   1.9999  1.9999 sum   3.9999
    8    C  MulP   1.9997  1.9997 sum   3.9995
    9    C  MulP   2.0000  2.0000 sum   4.0000
   10    C  MulP   1.9997  1.9997 sum   3.9993
   11    C  MulP   1.9986  1.9986 sum   3.9973
   12    C  MulP   2.0003  2.0003 sum   4.0007
   13    C  MulP   1.9999  1.9999 sum   3.9999
   14    C  MulP   2.0000  2.0000 sum   3.9999
   15    C  MulP   2.0000  2.0000 sum   4.0000
   16    C  MulP   2.0000  2.0000 sum   3.9999
   17    C  MulP   2.0000  2.0000 sum   4.0000
   18    C  MulP   1.9995  1.9995 sum   3.9990
   19    C  MulP   2.0033  2.0033 sum   4.0065
   20    C  MulP   2.0013  2.0013 sum   4.0026
     ..........
     ......

 Sum of MulP: up   =   267.00000 down          =   267.00000
              total=   534.00000 ideal(neutral)=   534.00000
<DFT>  Total Spin Moment (muB) =  0.000000000000
<DFT>  Mixing_weight= 0.030000000000
<DFT>  Uele   = -258.265670921659  dUele     =   0.047205001559
<DFT>  NormRD =    0.002736468719  Criterion =   0.000000010000

******************* MD= 1  SCF=19 *******************
<Poisson>  Poisson's equation using FFT...
<Set_Hamiltonian>  Hamiltonian matrix for VNA+dVH+Vxc...
<Band>  Solving the eigenvalue problem...
 KGrids1:  -0.43750  -0.31250  -0.18750  -0.06250   0.06250   0.18750   0.31250   0.43750 
 KGrids2:  -0.43750  -0.31250  -0.18750  -0.06250   0.06250   0.18750   0.31250   0.43750 
 KGrids3:   0.00000 
<Band_DFT>  Eigen, time=14.102747
<Band_DFT>  DM, time=0.000000
    1    C  MulP   1.9998  1.9998 sum   3.9996
    2    C  MulP   1.9998  1.9998 sum   3.9996
    3    C  MulP   1.9997  1.9997 sum   3.9995
    4    C  MulP   1.9998  1.9998 sum   3.9995
    5    C  MulP   2.0001  2.0001 sum   4.0001
    6    C  MulP   1.9998  1.9998 sum   3.9996
    7    C  MulP   1.9999  1.9999 sum   3.9999
    8    C  MulP   1.9997  1.9997 sum   3.9995
    9    C  MulP   2.0000  2.0000 sum   4.0000
   10    C  MulP   1.9997  1.9997 sum   3.9993
   11    C  MulP   1.9987  1.9987 sum   3.9973
   12    C  MulP   2.0003  2.0003 sum   4.0007
   13    C  MulP   2.0000  2.0000 sum   3.9999
   14    C  MulP   2.0000  2.0000 sum   3.9999
   15    C  MulP   2.0000  2.0000 sum   4.0000
   16    C  MulP   2.0000  2.0000 sum   3.9999
   17    C  MulP   2.0000  2.0000 sum   4.0000
   18    C  MulP   1.9995  1.9995 sum   3.9990
   19    C  MulP   2.0032  2.0032 sum   4.0065
   20    C  MulP   2.0013  2.0013 sum   4.0026
     ..........
     ......

 Sum of MulP: up   =   267.00000 down          =   267.00000
              total=   534.00000 ideal(neutral)=   534.00000
<DFT>  Total Spin Moment (muB) =  0.000000000000
<DFT>  Mixing_weight= 0.030000000000
<DFT>  Uele   = -258.343503204488  dUele     =   0.077832282829
<DFT>  NormRD =    0.002286141693  Criterion =   0.000000010000

******************* MD= 1  SCF=20 *******************
<Poisson>  Poisson's equation using FFT...
<Set_Hamiltonian>  Hamiltonian matrix for VNA+dVH+Vxc...
<Band>  Solving the eigenvalue problem...
 KGrids1:  -0.43750  -0.31250  -0.18750  -0.06250   0.06250   0.18750   0.31250   0.43750 
 KGrids2:  -0.43750  -0.31250  -0.18750  -0.06250   0.06250   0.18750   0.31250   0.43750 
 KGrids3:   0.00000 
<Band_DFT>  Eigen, time=14.104994
<Band_DFT>  DM, time=0.000000
    1    C  MulP   1.9998  1.9998 sum   3.9995
    2    C  MulP   1.9998  1.9998 sum   3.9995
    3    C  MulP   1.9997  1.9997 sum   3.9994
    4    C  MulP   1.9997  1.9997 sum   3.9995
    5    C  MulP   2.0000  2.0000 sum   4.0001
    6    C  MulP   1.9998  1.9998 sum   3.9996
    7    C  MulP   1.9999  1.9999 sum   3.9999
    8    C  MulP   1.9997  1.9997 sum   3.9995
    9    C  MulP   2.0000  2.0000 sum   4.0000
   10    C  MulP   1.9997  1.9997 sum   3.9993
   11    C  MulP   1.9986  1.9986 sum   3.9973
   12    C  MulP   2.0003  2.0003 sum   4.0007
   13    C  MulP   1.9999  1.9999 sum   3.9999
   14    C  MulP   2.0000  2.0000 sum   3.9999
   15    C  MulP   2.0000  2.0000 sum   3.9999
   16    C  MulP   2.0000  2.0000 sum   3.9999
   17    C  MulP   2.0000  2.0000 sum   4.0000
   18    C  MulP   1.9995  1.9995 sum   3.9990
   19    C  MulP   2.0033  2.0033 sum   4.0065
   20    C  MulP   2.0013  2.0013 sum   4.0026
     ..........
     ......

 Sum of MulP: up   =   267.00000 down          =   267.00000
              total=   534.00000 ideal(neutral)=   534.00000
<DFT>  Total Spin Moment (muB) =  0.000000000000
<DFT>  Mixing_weight= 0.030000000000
<DFT>  Uele   = -258.355439331856  dUele     =   0.011936127369
<DFT>  NormRD =    0.000651899223  Criterion =   0.000000010000

******************* MD= 1  SCF=21 *******************
<Poisson>  Poisson's equation using FFT...
<Set_Hamiltonian>  Hamiltonian matrix for VNA+dVH+Vxc...
<Band>  Solving the eigenvalue problem...
 KGrids1:  -0.43750  -0.31250  -0.18750  -0.06250   0.06250   0.18750   0.31250   0.43750 
 KGrids2:  -0.43750  -0.31250  -0.18750  -0.06250   0.06250   0.18750   0.31250   0.43750 
 KGrids3:   0.00000 
<Band_DFT>  Eigen, time=14.108168
<Band_DFT>  DM, time=0.000000
    1    C  MulP   1.9998  1.9998 sum   3.9995
    2    C  MulP   1.9998  1.9998 sum   3.9996
    3    C  MulP   1.9997  1.9997 sum   3.9994
    4    C  MulP   1.9998  1.9998 sum   3.9995
    5    C  MulP   2.0000  2.0000 sum   4.0001
    6    C  MulP   1.9998  1.9998 sum   3.9996
    7    C  MulP   1.9999  1.9999 sum   3.9999
    8    C  MulP   1.9997  1.9997 sum   3.9995
    9    C  MulP   2.0000  2.0000 sum   4.0000
   10    C  MulP   1.9997  1.9997 sum   3.9993
   11    C  MulP   1.9987  1.9987 sum   3.9973
   12    C  MulP   2.0003  2.0003 sum   4.0007
   13    C  MulP   2.0000  2.0000 sum   3.9999
   14    C  MulP   2.0000  2.0000 sum   3.9999
   15    C  MulP   2.0000  2.0000 sum   4.0000
   16    C  MulP   2.0000  2.0000 sum   3.9999
   17    C  MulP   2.0000  2.0000 sum   4.0000
   18    C  MulP   1.9995  1.9995 sum   3.9990
   19    C  MulP   2.0032  2.0032 sum   4.0065
   20    C  MulP   2.0013  2.0013 sum   4.0025
     ..........
     ......

 Sum of MulP: up   =   267.00000 down          =   267.00000
              total=   534.00000 ideal(neutral)=   534.00000
<DFT>  Total Spin Moment (muB) =  0.000000000000
<DFT>  Mixing_weight= 0.030000000000
<DFT>  Uele   = -258.367157033357  dUele     =   0.011717701501
<DFT>  NormRD =    0.000759425005  Criterion =   0.000000010000

******************* MD= 1  SCF=22 *******************
<Poisson>  Poisson's equation using FFT...
<Set_Hamiltonian>  Hamiltonian matrix for VNA+dVH+Vxc...
<Band>  Solving the eigenvalue problem...
 KGrids1:  -0.43750  -0.31250  -0.18750  -0.06250   0.06250   0.18750   0.31250   0.43750 
 KGrids2:  -0.43750  -0.31250  -0.18750  -0.06250   0.06250   0.18750   0.31250   0.43750 
 KGrids3:   0.00000 
<Band_DFT>  Eigen, time=14.110407
<Band_DFT>  DM, time=0.000001
    1    C  MulP   1.9998  1.9998 sum   3.9995
    2    C  MulP   1.9998  1.9998 sum   3.9995
    3    C  MulP   1.9997  1.9997 sum   3.9994
    4    C  MulP   1.9997  1.9997 sum   3.9995
    5    C  MulP   2.0000  2.0000 sum   4.0001
    6    C  MulP   1.9998  1.9998 sum   3.9996
    7    C  MulP   1.9999  1.9999 sum   3.9999
    8    C  MulP   1.9997  1.9997 sum   3.9995
    9    C  MulP   2.0000  2.0000 sum   4.0000
   10    C  MulP   1.9997  1.9997 sum   3.9993
   11    C  MulP   1.9987  1.9987 sum   3.9973
   12    C  MulP   2.0003  2.0003 sum   4.0007
   13    C  MulP   2.0000  2.0000 sum   3.9999
   14    C  MulP   2.0000  2.0000 sum   3.9999
   15    C  MulP   2.0000  2.0000 sum   4.0000
   16    C  MulP   2.0000  2.0000 sum   3.9999
   17    C  MulP   2.0000  2.0000 sum   4.0000
   18    C  MulP   1.9995  1.9995 sum   3.9990
   19    C  MulP   2.0033  2.0033 sum   4.0065
   20    C  MulP   2.0013  2.0013 sum   4.0026
     ..........
     ......

 Sum of MulP: up   =   267.00000 down          =   267.00000
              total=   534.00000 ideal(neutral)=   534.00000
<DFT>  Total Spin Moment (muB) =  0.000000000000
<DFT>  Mixing_weight= 0.030000000000
<DFT>  Uele   = -258.374990149088  dUele     =   0.007833115731
<DFT>  NormRD =    0.000134859940  Criterion =   0.000000010000

******************* MD= 1  SCF=23 *******************
<Poisson>  Poisson's equation using FFT...
<Set_Hamiltonian>  Hamiltonian matrix for VNA+dVH+Vxc...
<Band>  Solving the eigenvalue problem...
 KGrids1:  -0.43750  -0.31250  -0.18750  -0.06250   0.06250   0.18750   0.31250   0.43750 
 KGrids2:  -0.43750  -0.31250  -0.18750  -0.06250   0.06250   0.18750   0.31250   0.43750 
 KGrids3:   0.00000 
<Band_DFT>  Eigen, time=14.117948
<Band_DFT>  DM, time=0.000001
    1    C  MulP   1.9998  1.9998 sum   3.9995
    2    C  MulP   1.9998  1.9998 sum   3.9995
    3    C  MulP   1.9997  1.9997 sum   3.9994
    4    C  MulP   1.9997  1.9997 sum   3.9995
    5    C  MulP   2.0000  2.0000 sum   4.0001
    6    C  MulP   1.9998  1.9998 sum   3.9996
    7    C  MulP   1.9999  1.9999 sum   3.9999
    8    C  MulP   1.9997  1.9997 sum   3.9995
    9    C  MulP   2.0000  2.0000 sum   4.0000
   10    C  MulP   1.9997  1.9997 sum   3.9993
   11    C  MulP   1.9986  1.9986 sum   3.9973
   12    C  MulP   2.0003  2.0003 sum   4.0007
   13    C  MulP   2.0000  2.0000 sum   3.9999
   14    C  MulP   2.0000  2.0000 sum   3.9999
   15    C  MulP   2.0000  2.0000 sum   4.0000
   16    C  MulP   2.0000  2.0000 sum   3.9999
   17    C  MulP   2.0000  2.0000 sum   4.0000
   18    C  MulP   1.9995  1.9995 sum   3.9990
   19    C  MulP   2.0033  2.0033 sum   4.0065
   20    C  MulP   2.0013  2.0013 sum   4.0025
     ..........
     ......

 Sum of MulP: up   =   267.00000 down          =   267.00000
              total=   534.00000 ideal(neutral)=   534.00000
<DFT>  Total Spin Moment (muB) =  0.000000000000
<DFT>  Mixing_weight= 0.030000000000
<DFT>  Uele   = -258.376889701082  dUele     =   0.001899551994
<DFT>  NormRD =    0.000075618194  Criterion =   0.000000010000

******************* MD= 1  SCF=24 *******************
<Poisson>  Poisson's equation using FFT...
<Set_Hamiltonian>  Hamiltonian matrix for VNA+dVH+Vxc...
<Band>  Solving the eigenvalue problem...
 KGrids1:  -0.43750  -0.31250  -0.18750  -0.06250   0.06250   0.18750   0.31250   0.43750 
 KGrids2:  -0.43750  -0.31250  -0.18750  -0.06250   0.06250   0.18750   0.31250   0.43750 
 KGrids3:   0.00000 
<Band_DFT>  Eigen, time=14.100698
<Band_DFT>  DM, time=0.000000
    1    C  MulP   1.9998  1.9998 sum   3.9995
    2    C  MulP   1.9998  1.9998 sum   3.9995
    3    C  MulP   1.9997  1.9997 sum   3.9994
    4    C  MulP   1.9997  1.9997 sum   3.9995
    5    C  MulP   2.0000  2.0000 sum   4.0001
    6    C  MulP   1.9998  1.9998 sum   3.9996
    7    C  MulP   1.9999  1.9999 sum   3.9999
    8    C  MulP   1.9997  1.9997 sum   3.9995
    9    C  MulP   2.0000  2.0000 sum   4.0000
   10    C  MulP   1.9997  1.9997 sum   3.9993
   11    C  MulP   1.9986  1.9986 sum   3.9973
   12    C  MulP   2.0003  2.0003 sum   4.0007
   13    C  MulP   2.0000  2.0000 sum   3.9999
   14    C  MulP   2.0000  2.0000 sum   3.9999
   15    C  MulP   2.0000  2.0000 sum   4.0000
   16    C  MulP   2.0000  2.0000 sum   3.9999
   17    C  MulP   2.0000  2.0000 sum   4.0000
   18    C  MulP   1.9995  1.9995 sum   3.9990
   19    C  MulP   2.0033  2.0033 sum   4.0065
   20    C  MulP   2.0013  2.0013 sum   4.0026
     ..........
     ......

 Sum of MulP: up   =   267.00000 down          =   267.00000
              total=   534.00000 ideal(neutral)=   534.00000
<DFT>  Total Spin Moment (muB) =  0.000000000000
<DFT>  Mixing_weight= 0.030000000000
<DFT>  Uele   = -258.377972292890  dUele     =   0.001082591808
<DFT>  NormRD =    0.000052046649  Criterion =   0.000000010000

******************* MD= 1  SCF=25 *******************
<Poisson>  Poisson's equation using FFT...
<Set_Hamiltonian>  Hamiltonian matrix for VNA+dVH+Vxc...
<Band>  Solving the eigenvalue problem...
 KGrids1:  -0.43750  -0.31250  -0.18750  -0.06250   0.06250   0.18750   0.31250   0.43750 
 KGrids2:  -0.43750  -0.31250  -0.18750  -0.06250   0.06250   0.18750   0.31250   0.43750 
 KGrids3:   0.00000 
<Band_DFT>  Eigen, time=14.117786
<Band_DFT>  DM, time=0.000001
    1    C  MulP   1.9998  1.9998 sum   3.9995
    2    C  MulP   1.9998  1.9998 sum   3.9995
    3    C  MulP   1.9997  1.9997 sum   3.9994
    4    C  MulP   1.9997  1.9997 sum   3.9995
    5    C  MulP   2.0000  2.0000 sum   4.0001
    6    C  MulP   1.9998  1.9998 sum   3.9996
    7    C  MulP   1.9999  1.9999 sum   3.9999
    8    C  MulP   1.9997  1.9997 sum   3.9995
    9    C  MulP   2.0000  2.0000 sum   4.0000
   10    C  MulP   1.9997  1.9997 sum   3.9993
   11    C  MulP   1.9986  1.9986 sum   3.9973
   12    C  MulP   2.0003  2.0003 sum   4.0007
   13    C  MulP   2.0000  2.0000 sum   3.9999
   14    C  MulP   2.0000  2.0000 sum   3.9999
   15    C  MulP   2.0000  2.0000 sum   4.0000
   16    C  MulP   2.0000  2.0000 sum   3.9999
   17    C  MulP   2.0000  2.0000 sum   4.0000
   18    C  MulP   1.9995  1.9995 sum   3.9990
   19    C  MulP   2.0033  2.0033 sum   4.0065
   20    C  MulP   2.0013  2.0013 sum   4.0026
     ..........
     ......

 Sum of MulP: up   =   267.00000 down          =   267.00000
              total=   534.00000 ideal(neutral)=   534.00000
<DFT>  Total Spin Moment (muB) =  0.000000000000
<DFT>  Mixing_weight= 0.030000000000
<DFT>  Uele   = -258.378675398428  dUele     =   0.000703105538
<DFT>  NormRD =    0.000021008699  Criterion =   0.000000010000

******************* MD= 1  SCF=26 *******************
<Poisson>  Poisson's equation using FFT...
<Set_Hamiltonian>  Hamiltonian matrix for VNA+dVH+Vxc...
<Band>  Solving the eigenvalue problem...
 KGrids1:  -0.43750  -0.31250  -0.18750  -0.06250   0.06250   0.18750   0.31250   0.43750 
 KGrids2:  -0.43750  -0.31250  -0.18750  -0.06250   0.06250   0.18750   0.31250   0.43750 
 KGrids3:   0.00000 
<Band_DFT>  Eigen, time=14.096838
<Band_DFT>  DM, time=0.000000
    1    C  MulP   1.9998  1.9998 sum   3.9995
    2    C  MulP   1.9998  1.9998 sum   3.9995
    3    C  MulP   1.9997  1.9997 sum   3.9994
    4    C  MulP   1.9997  1.9997 sum   3.9995
    5    C  MulP   2.0000  2.0000 sum   4.0001
    6    C  MulP   1.9998  1.9998 sum   3.9996
    7    C  MulP   1.9999  1.9999 sum   3.9999
    8    C  MulP   1.9997  1.9997 sum   3.9995
    9    C  MulP   2.0000  2.0000 sum   4.0000
   10    C  MulP   1.9997  1.9997 sum   3.9993
   11    C  MulP   1.9986  1.9986 sum   3.9973
   12    C  MulP   2.0003  2.0003 sum   4.0007
   13    C  MulP   2.0000  2.0000 sum   3.9999
   14    C  MulP   2.0000  2.0000 sum   3.9999
   15    C  MulP   2.0000  2.0000 sum   4.0000
   16    C  MulP   2.0000  2.0000 sum   3.9999
   17    C  MulP   2.0000  2.0000 sum   4.0000
   18    C  MulP   1.9995  1.9995 sum   3.9990
   19    C  MulP   2.0033  2.0033 sum   4.0065
   20    C  MulP   2.0013  2.0013 sum   4.0026
     ..........
     ......

 Sum of MulP: up   =   267.00000 down          =   267.00000
              total=   534.00000 ideal(neutral)=   534.00000
<DFT>  Total Spin Moment (muB) =  0.000000000000
<DFT>  Mixing_weight= 0.030000000000
<DFT>  Uele   = -258.379030930350  dUele     =   0.000355531922
<DFT>  NormRD =    0.000010637912  Criterion =   0.000000010000

******************* MD= 1  SCF=27 *******************
<Poisson>  Poisson's equation using FFT...
<Set_Hamiltonian>  Hamiltonian matrix for VNA+dVH+Vxc...
<Band>  Solving the eigenvalue problem...
 KGrids1:  -0.43750  -0.31250  -0.18750  -0.06250   0.06250   0.18750   0.31250   0.43750 
 KGrids2:  -0.43750  -0.31250  -0.18750  -0.06250   0.06250   0.18750   0.31250   0.43750 
 KGrids3:   0.00000 
<Band_DFT>  Eigen, time=14.145660
<Band_DFT>  DM, time=0.000001
    1    C  MulP   1.9998  1.9998 sum   3.9995
    2    C  MulP   1.9998  1.9998 sum   3.9995
    3    C  MulP   1.9997  1.9997 sum   3.9994
    4    C  MulP   1.9997  1.9997 sum   3.9995
    5    C  MulP   2.0000  2.0000 sum   4.0001
    6    C  MulP   1.9998  1.9998 sum   3.9996
    7    C  MulP   1.9999  1.9999 sum   3.9999
    8    C  MulP   1.9997  1.9997 sum   3.9995
    9    C  MulP   2.0000  2.0000 sum   4.0000
   10    C  MulP   1.9997  1.9997 sum   3.9993
   11    C  MulP   1.9986  1.9986 sum   3.9973
   12    C  MulP   2.0003  2.0003 sum   4.0007
   13    C  MulP   2.0000  2.0000 sum   3.9999
   14    C  MulP   2.0000  2.0000 sum   3.9999
   15    C  MulP   2.0000  2.0000 sum   4.0000
   16    C  MulP   2.0000  2.0000 sum   3.9999
   17    C  MulP   2.0000  2.0000 sum   4.0000
   18    C  MulP   1.9995  1.9995 sum   3.9990
   19    C  MulP   2.0033  2.0033 sum   4.0065
   20    C  MulP   2.0013  2.0013 sum   4.0026
     ..........
     ......

 Sum of MulP: up   =   267.00000 down          =   267.00000
              total=   534.00000 ideal(neutral)=   534.00000
<DFT>  Total Spin Moment (muB) =  0.000000000000
<DFT>  Mixing_weight= 0.030000000000
<DFT>  Uele   = -258.379256795258  dUele     =   0.000225864908
<DFT>  NormRD =    0.000005674365  Criterion =   0.000000010000

******************* MD= 1  SCF=28 *******************
<Poisson>  Poisson's equation using FFT...
<Set_Hamiltonian>  Hamiltonian matrix for VNA+dVH+Vxc...
<Band>  Solving the eigenvalue problem...
 KGrids1:  -0.43750  -0.31250  -0.18750  -0.06250   0.06250   0.18750   0.31250   0.43750 
 KGrids2:  -0.43750  -0.31250  -0.18750  -0.06250   0.06250   0.18750   0.31250   0.43750 
 KGrids3:   0.00000 
<Band_DFT>  Eigen, time=14.110056
<Band_DFT>  DM, time=0.000000
    1    C  MulP   1.9998  1.9998 sum   3.9995
    2    C  MulP   1.9998  1.9998 sum   3.9995
    3    C  MulP   1.9997  1.9997 sum   3.9994
    4    C  MulP   1.9997  1.9997 sum   3.9995
    5    C  MulP   2.0000  2.0000 sum   4.0001
    6    C  MulP   1.9998  1.9998 sum   3.9996
    7    C  MulP   1.9999  1.9999 sum   3.9999
    8    C  MulP   1.9997  1.9997 sum   3.9995
    9    C  MulP   2.0000  2.0000 sum   4.0000
   10    C  MulP   1.9997  1.9997 sum   3.9993
   11    C  MulP   1.9986  1.9986 sum   3.9973
   12    C  MulP   2.0003  2.0003 sum   4.0007
   13    C  MulP   2.0000  2.0000 sum   3.9999
   14    C  MulP   2.0000  2.0000 sum   3.9999
   15    C  MulP   2.0000  2.0000 sum   4.0000
   16    C  MulP   2.0000  2.0000 sum   3.9999
   17    C  MulP   2.0000  2.0000 sum   4.0000
   18    C  MulP   1.9995  1.9995 sum   3.9990
   19    C  MulP   2.0033  2.0033 sum   4.0065
   20    C  MulP   2.0013  2.0013 sum   4.0026
     ..........
     ......

 Sum of MulP: up   =   267.00000 down          =   267.00000
              total=   534.00000 ideal(neutral)=   534.00000
<DFT>  Total Spin Moment (muB) =  0.000000000000
<DFT>  Mixing_weight= 0.030000000000
<DFT>  Uele   = -258.379401052951  dUele     =   0.000144257693
<DFT>  NormRD =    0.000002798016  Criterion =   0.000000010000

******************* MD= 1  SCF=29 *******************
<Poisson>  Poisson's equation using FFT...
<Set_Hamiltonian>  Hamiltonian matrix for VNA+dVH+Vxc...
<Band>  Solving the eigenvalue problem...
 KGrids1:  -0.43750  -0.31250  -0.18750  -0.06250   0.06250   0.18750   0.31250   0.43750 
 KGrids2:  -0.43750  -0.31250  -0.18750  -0.06250   0.06250   0.18750   0.31250   0.43750 
 KGrids3:   0.00000 
<Band_DFT>  Eigen, time=14.121223
<Band_DFT>  DM, time=0.000000
    1    C  MulP   1.9998  1.9998 sum   3.9995
    2    C  MulP   1.9998  1.9998 sum   3.9995
    3    C  MulP   1.9997  1.9997 sum   3.9994
    4    C  MulP   1.9997  1.9997 sum   3.9995
    5    C  MulP   2.0000  2.0000 sum   4.0001
    6    C  MulP   1.9998  1.9998 sum   3.9996
    7    C  MulP   1.9999  1.9999 sum   3.9999
    8    C  MulP   1.9997  1.9997 sum   3.9995
    9    C  MulP   2.0000  2.0000 sum   4.0000
   10    C  MulP   1.9997  1.9997 sum   3.9993
   11    C  MulP   1.9986  1.9986 sum   3.9973
   12    C  MulP   2.0003  2.0003 sum   4.0007
   13    C  MulP   2.0000  2.0000 sum   3.9999
   14    C  MulP   2.0000  2.0000 sum   3.9999
   15    C  MulP   2.0000  2.0000 sum   4.0000
   16    C  MulP   2.0000  2.0000 sum   3.9999
   17    C  MulP   2.0000  2.0000 sum   4.0000
   18    C  MulP   1.9995  1.9995 sum   3.9990
   19    C  MulP   2.0033  2.0033 sum   4.0065
   20    C  MulP   2.0013  2.0013 sum   4.0026
     ..........
     ......

 Sum of MulP: up   =   267.00000 down          =   267.00000
              total=   534.00000 ideal(neutral)=   534.00000
<DFT>  Total Spin Moment (muB) =  0.000000000000
<DFT>  Mixing_weight= 0.030000000000
<DFT>  Uele   = -258.379473551135  dUele     =   0.000072498184
<DFT>  NormRD =    0.000001555662  Criterion =   0.000000010000

******************* MD= 1  SCF=30 *******************
<Poisson>  Poisson's equation using FFT...
<Set_Hamiltonian>  Hamiltonian matrix for VNA+dVH+Vxc...
<Band>  Solving the eigenvalue problem...
 KGrids1:  -0.43750  -0.31250  -0.18750  -0.06250   0.06250   0.18750   0.31250   0.43750 
 KGrids2:  -0.43750  -0.31250  -0.18750  -0.06250   0.06250   0.18750   0.31250   0.43750 
 KGrids3:   0.00000 
<Band_DFT>  Eigen, time=14.118128
<Band_DFT>  DM, time=0.000001
    1    C  MulP   1.9998  1.9998 sum   3.9995
    2    C  MulP   1.9998  1.9998 sum   3.9995
    3    C  MulP   1.9997  1.9997 sum   3.9994
    4    C  MulP   1.9997  1.9997 sum   3.9995
    5    C  MulP   2.0000  2.0000 sum   4.0001
    6    C  MulP   1.9998  1.9998 sum   3.9996
    7    C  MulP   1.9999  1.9999 sum   3.9999
    8    C  MulP   1.9997  1.9997 sum   3.9995
    9    C  MulP   2.0000  2.0000 sum   4.0000
   10    C  MulP   1.9997  1.9997 sum   3.9993
   11    C  MulP   1.9986  1.9986 sum   3.9973
   12    C  MulP   2.0003  2.0003 sum   4.0007
   13    C  MulP   2.0000  2.0000 sum   3.9999
   14    C  MulP   2.0000  2.0000 sum   3.9999
   15    C  MulP   2.0000  2.0000 sum   4.0000
   16    C  MulP   2.0000  2.0000 sum   3.9999
   17    C  MulP   2.0000  2.0000 sum   4.0000
   18    C  MulP   1.9995  1.9995 sum   3.9990
   19    C  MulP   2.0033  2.0033 sum   4.0065
   20    C  MulP   2.0013  2.0013 sum   4.0026
     ..........
     ......

 Sum of MulP: up   =   267.00000 down          =   267.00000
              total=   534.00000 ideal(neutral)=   534.00000
<DFT>  Total Spin Moment (muB) =  0.000000000000
<DFT>  Mixing_weight= 0.030000000000
<DFT>  Uele   = -258.379518582014  dUele     =   0.000045030879
<DFT>  NormRD =    0.000000841908  Criterion =   0.000000010000

******************* MD= 1  SCF=31 *******************
<Poisson>  Poisson's equation using FFT...
<Set_Hamiltonian>  Hamiltonian matrix for VNA+dVH+Vxc...
<Band>  Solving the eigenvalue problem...
 KGrids1:  -0.43750  -0.31250  -0.18750  -0.06250   0.06250   0.18750   0.31250   0.43750 
 KGrids2:  -0.43750  -0.31250  -0.18750  -0.06250   0.06250   0.18750   0.31250   0.43750 
 KGrids3:   0.00000 
<Band_DFT>  Eigen, time=14.108081
<Band_DFT>  DM, time=0.000000
    1    C  MulP   1.9998  1.9998 sum   3.9995
    2    C  MulP   1.9998  1.9998 sum   3.9995
    3    C  MulP   1.9997  1.9997 sum   3.9994
    4    C  MulP   1.9997  1.9997 sum   3.9995
    5    C  MulP   2.0000  2.0000 sum   4.0001
    6    C  MulP   1.9998  1.9998 sum   3.9996
    7    C  MulP   1.9999  1.9999 sum   3.9999
    8    C  MulP   1.9997  1.9997 sum   3.9995
    9    C  MulP   2.0000  2.0000 sum   4.0000
   10    C  MulP   1.9997  1.9997 sum   3.9993
   11    C  MulP   1.9986  1.9986 sum   3.9973
   12    C  MulP   2.0003  2.0003 sum   4.0007
   13    C  MulP   2.0000  2.0000 sum   3.9999
   14    C  MulP   2.0000  2.0000 sum   3.9999
   15    C  MulP   2.0000  2.0000 sum   4.0000
   16    C  MulP   2.0000  2.0000 sum   3.9999
   17    C  MulP   2.0000  2.0000 sum   4.0000
   18    C  MulP   1.9995  1.9995 sum   3.9990
   19    C  MulP   2.0033  2.0033 sum   4.0065
   20    C  MulP   2.0013  2.0013 sum   4.0026
     ..........
     ......

 Sum of MulP: up   =   267.00000 down          =   267.00000
              total=   534.00000 ideal(neutral)=   534.00000
<DFT>  Total Spin Moment (muB) =  0.000000000000
<DFT>  Mixing_weight= 0.030000000000
<DFT>  Uele   = -258.379542385667  dUele     =   0.000023803653
<DFT>  NormRD =    0.000000431116  Criterion =   0.000000010000

******************* MD= 1  SCF=32 *******************
<Poisson>  Poisson's equation using FFT...
<Set_Hamiltonian>  Hamiltonian matrix for VNA+dVH+Vxc...
<Band>  Solving the eigenvalue problem...
 KGrids1:  -0.43750  -0.31250  -0.18750  -0.06250   0.06250   0.18750   0.31250   0.43750 
 KGrids2:  -0.43750  -0.31250  -0.18750  -0.06250   0.06250   0.18750   0.31250   0.43750 
 KGrids3:   0.00000 
<Band_DFT>  Eigen, time=14.114271
<Band_DFT>  DM, time=0.000000
    1    C  MulP   1.9998  1.9998 sum   3.9995
    2    C  MulP   1.9998  1.9998 sum   3.9995
    3    C  MulP   1.9997  1.9997 sum   3.9994
    4    C  MulP   1.9997  1.9997 sum   3.9995
    5    C  MulP   2.0000  2.0000 sum   4.0001
    6    C  MulP   1.9998  1.9998 sum   3.9996
    7    C  MulP   1.9999  1.9999 sum   3.9999
    8    C  MulP   1.9997  1.9997 sum   3.9995
    9    C  MulP   2.0000  2.0000 sum   4.0000
   10    C  MulP   1.9997  1.9997 sum   3.9993
   11    C  MulP   1.9986  1.9986 sum   3.9973
   12    C  MulP   2.0003  2.0003 sum   4.0007
   13    C  MulP   2.0000  2.0000 sum   3.9999
   14    C  MulP   2.0000  2.0000 sum   3.9999
   15    C  MulP   2.0000  2.0000 sum   4.0000
   16    C  MulP   2.0000  2.0000 sum   3.9999
   17    C  MulP   2.0000  2.0000 sum   4.0000
   18    C  MulP   1.9995  1.9995 sum   3.9990
   19    C  MulP   2.0033  2.0033 sum   4.0065
   20    C  MulP   2.0013  2.0013 sum   4.0026
     ..........
     ......

 Sum of MulP: up   =   267.00000 down          =   267.00000
              total=   534.00000 ideal(neutral)=   534.00000
<DFT>  Total Spin Moment (muB) =  0.000000000000
<DFT>  Mixing_weight= 0.030000000000
<DFT>  Uele   = -258.379557091706  dUele     =   0.000014706038
<DFT>  NormRD =    0.000000219939  Criterion =   0.000000010000

******************* MD= 1  SCF=33 *******************
<Poisson>  Poisson's equation using FFT...
<Set_Hamiltonian>  Hamiltonian matrix for VNA+dVH+Vxc...
<Band>  Solving the eigenvalue problem...
 KGrids1:  -0.43750  -0.31250  -0.18750  -0.06250   0.06250   0.18750   0.31250   0.43750 
 KGrids2:  -0.43750  -0.31250  -0.18750  -0.06250   0.06250   0.18750   0.31250   0.43750 
 KGrids3:   0.00000 
<Band_DFT>  Eigen, time=14.122702
<Band_DFT>  DM, time=0.000001
    1    C  MulP   1.9998  1.9998 sum   3.9995
    2    C  MulP   1.9998  1.9998 sum   3.9995
    3    C  MulP   1.9997  1.9997 sum   3.9994
    4    C  MulP   1.9997  1.9997 sum   3.9995
    5    C  MulP   2.0000  2.0000 sum   4.0001
    6    C  MulP   1.9998  1.9998 sum   3.9996
    7    C  MulP   1.9999  1.9999 sum   3.9999
    8    C  MulP   1.9997  1.9997 sum   3.9995
    9    C  MulP   2.0000  2.0000 sum   4.0000
   10    C  MulP   1.9997  1.9997 sum   3.9993
   11    C  MulP   1.9986  1.9986 sum   3.9973
   12    C  MulP   2.0003  2.0003 sum   4.0007
   13    C  MulP   2.0000  2.0000 sum   3.9999
   14    C  MulP   2.0000  2.0000 sum   3.9999
   15    C  MulP   2.0000  2.0000 sum   4.0000
   16    C  MulP   2.0000  2.0000 sum   3.9999
   17    C  MulP   2.0000  2.0000 sum   4.0000
   18    C  MulP   1.9995  1.9995 sum   3.9990
   19    C  MulP   2.0033  2.0033 sum   4.0065
   20    C  MulP   2.0013  2.0013 sum   4.0026
     ..........
     ......

 Sum of MulP: up   =   267.00000 down          =   267.00000
              total=   534.00000 ideal(neutral)=   534.00000
<DFT>  Total Spin Moment (muB) =  0.000000000000
<DFT>  Mixing_weight= 0.030000000000
<DFT>  Uele   = -258.379568110919  dUele     =   0.000011019213
<DFT>  NormRD =    0.000000070799  Criterion =   0.000000010000

******************* MD= 1  SCF=34 *******************
<Poisson>  Poisson's equation using FFT...
<Set_Hamiltonian>  Hamiltonian matrix for VNA+dVH+Vxc...
<Band>  Solving the eigenvalue problem...
 KGrids1:  -0.43750  -0.31250  -0.18750  -0.06250   0.06250   0.18750   0.31250   0.43750 
 KGrids2:  -0.43750  -0.31250  -0.18750  -0.06250   0.06250   0.18750   0.31250   0.43750 
 KGrids3:   0.00000 
<Band_DFT>  Eigen, time=14.108322
<Band_DFT>  DM, time=0.000001
    1    C  MulP   1.9998  1.9998 sum   3.9995
    2    C  MulP   1.9998  1.9998 sum   3.9995
    3    C  MulP   1.9997  1.9997 sum   3.9994
    4    C  MulP   1.9997  1.9997 sum   3.9995
    5    C  MulP   2.0000  2.0000 sum   4.0001
    6    C  MulP   1.9998  1.9998 sum   3.9996
    7    C  MulP   1.9999  1.9999 sum   3.9999
    8    C  MulP   1.9997  1.9997 sum   3.9995
    9    C  MulP   2.0000  2.0000 sum   4.0000
   10    C  MulP   1.9997  1.9997 sum   3.9993
   11    C  MulP   1.9986  1.9986 sum   3.9973
   12    C  MulP   2.0003  2.0003 sum   4.0007
   13    C  MulP   2.0000  2.0000 sum   3.9999
   14    C  MulP   2.0000  2.0000 sum   3.9999
   15    C  MulP   2.0000  2.0000 sum   4.0000
   16    C  MulP   2.0000  2.0000 sum   3.9999
   17    C  MulP   2.0000  2.0000 sum   4.0000
   18    C  MulP   1.9995  1.9995 sum   3.9990
   19    C  MulP   2.0033  2.0033 sum   4.0065
   20    C  MulP   2.0013  2.0013 sum   4.0026
     ..........
     ......

 Sum of MulP: up   =   267.00000 down          =   267.00000
              total=   534.00000 ideal(neutral)=   534.00000
<DFT>  Total Spin Moment (muB) =  0.000000000000
<DFT>  Mixing_weight= 0.030000000000
<DFT>  Uele   = -258.379571359793  dUele     =   0.000003248875
<DFT>  NormRD =    0.000000021258  Criterion =   0.000000010000

******************* MD= 1  SCF=35 *******************
<Poisson>  Poisson's equation using FFT...
<Set_Hamiltonian>  Hamiltonian matrix for VNA+dVH+Vxc...
<Band>  Solving the eigenvalue problem...
 KGrids1:  -0.43750  -0.31250  -0.18750  -0.06250   0.06250   0.18750   0.31250   0.43750 
 KGrids2:  -0.43750  -0.31250  -0.18750  -0.06250   0.06250   0.18750   0.31250   0.43750 
 KGrids3:   0.00000 
<Band_DFT>  Eigen, time=14.121726
<Band_DFT>  DM, time=0.000000
    1    C  MulP   1.9998  1.9998 sum   3.9995
    2    C  MulP   1.9998  1.9998 sum   3.9995
    3    C  MulP   1.9997  1.9997 sum   3.9994
    4    C  MulP   1.9997  1.9997 sum   3.9995
    5    C  MulP   2.0000  2.0000 sum   4.0001
    6    C  MulP   1.9998  1.9998 sum   3.9996
    7    C  MulP   1.9999  1.9999 sum   3.9999
    8    C  MulP   1.9997  1.9997 sum   3.9995
    9    C  MulP   2.0000  2.0000 sum   4.0000
   10    C  MulP   1.9997  1.9997 sum   3.9993
   11    C  MulP   1.9986  1.9986 sum   3.9973
   12    C  MulP   2.0003  2.0003 sum   4.0007
   13    C  MulP   2.0000  2.0000 sum   3.9999
   14    C  MulP   2.0000  2.0000 sum   3.9999
   15    C  MulP   2.0000  2.0000 sum   4.0000
   16    C  MulP   2.0000  2.0000 sum   3.9999
   17    C  MulP   2.0000  2.0000 sum   4.0000
   18    C  MulP   1.9995  1.9995 sum   3.9990
   19    C  MulP   2.0033  2.0033 sum   4.0065
   20    C  MulP   2.0013  2.0013 sum   4.0026
     ..........
     ......

 Sum of MulP: up   =   267.00000 down          =   267.00000
              total=   534.00000 ideal(neutral)=   534.00000
<DFT>  Total Spin Moment (muB) =  0.000000000000
<DFT>  Mixing_weight= 0.030000000000
<DFT>  Uele   = -258.379572430777  dUele     =   0.000001070983
<DFT>  NormRD =    0.000000006383  Criterion =   0.000000010000

******************* MD= 1  SCF=36 *******************
<Poisson>  Poisson's equation using FFT...
<Set_Hamiltonian>  Hamiltonian matrix for VNA+dVH+Vxc...
<Band>  Solving the eigenvalue problem...
 KGrids1:  -0.43750  -0.31250  -0.18750  -0.06250   0.06250   0.18750   0.31250   0.43750 
 KGrids2:  -0.43750  -0.31250  -0.18750  -0.06250   0.06250   0.18750   0.31250   0.43750 
 KGrids3:   0.00000 
<Band_DFT>  Eigen, time=14.100183
<Band_DFT>  DM, time=0.000000
    1    C  MulP   1.9998  1.9998 sum   3.9995
    2    C  MulP   1.9998  1.9998 sum   3.9995
    3    C  MulP   1.9997  1.9997 sum   3.9994
    4    C  MulP   1.9997  1.9997 sum   3.9995
    5    C  MulP   2.0000  2.0000 sum   4.0001
    6    C  MulP   1.9998  1.9998 sum   3.9996
    7    C  MulP   1.9999  1.9999 sum   3.9999
    8    C  MulP   1.9997  1.9997 sum   3.9995
    9    C  MulP   2.0000  2.0000 sum   4.0000
   10    C  MulP   1.9997  1.9997 sum   3.9993
   11    C  MulP   1.9986  1.9986 sum   3.9973
   12    C  MulP   2.0003  2.0003 sum   4.0007
   13    C  MulP   2.0000  2.0000 sum   3.9999
   14    C  MulP   2.0000  2.0000 sum   3.9999
   15    C  MulP   2.0000  2.0000 sum   4.0000
   16    C  MulP   2.0000  2.0000 sum   3.9999
   17    C  MulP   2.0000  2.0000 sum   4.0000
   18    C  MulP   1.9995  1.9995 sum   3.9990
   19    C  MulP   2.0033  2.0033 sum   4.0065
   20    C  MulP   2.0013  2.0013 sum   4.0026
     ..........
     ......

 Sum of MulP: up   =   267.00000 down          =   267.00000
              total=   534.00000 ideal(neutral)=   534.00000
<DFT>  Total Spin Moment (muB) =  0.000000000000
<DFT>  Mixing_weight= 0.030000000000
<DFT>  Uele   = -258.379572648780  dUele     =   0.000000218003
<DFT>  NormRD =    0.000000003173  Criterion =   0.000000010000

******************* MD= 1  SCF=37 *******************
<Poisson>  Poisson's equation using FFT...
<Set_Hamiltonian>  Hamiltonian matrix for VNA+dVH+Vxc...
<Band>  Solving the eigenvalue problem...
 KGrids1:  -0.43750  -0.31250  -0.18750  -0.06250   0.06250   0.18750   0.31250   0.43750 
 KGrids2:  -0.43750  -0.31250  -0.18750  -0.06250   0.06250   0.18750   0.31250   0.43750 
 KGrids3:   0.00000 
<Band_DFT>  Eigen, time=14.103287
<Band_DFT>  DM, time=0.000001
    1    C  MulP   1.9998  1.9998 sum   3.9995
    2    C  MulP   1.9998  1.9998 sum   3.9995
    3    C  MulP   1.9997  1.9997 sum   3.9994
    4    C  MulP   1.9997  1.9997 sum   3.9995
    5    C  MulP   2.0000  2.0000 sum   4.0001
    6    C  MulP   1.9998  1.9998 sum   3.9996
    7    C  MulP   1.9999  1.9999 sum   3.9999
    8    C  MulP   1.9997  1.9997 sum   3.9995
    9    C  MulP   2.0000  2.0000 sum   4.0000
   10    C  MulP   1.9997  1.9997 sum   3.9993
   11    C  MulP   1.9986  1.9986 sum   3.9973
   12    C  MulP   2.0003  2.0003 sum   4.0007
   13    C  MulP   2.0000  2.0000 sum   3.9999
   14    C  MulP   2.0000  2.0000 sum   3.9999
   15    C  MulP   2.0000  2.0000 sum   4.0000
   16    C  MulP   2.0000  2.0000 sum   3.9999
   17    C  MulP   2.0000  2.0000 sum   4.0000
   18    C  MulP   1.9995  1.9995 sum   3.9990
   19    C  MulP   2.0033  2.0033 sum   4.0065
   20    C  MulP   2.0013  2.0013 sum   4.0026
     ..........
     ......

 Sum of MulP: up   =   267.00000 down          =   267.00000
              total=   534.00000 ideal(neutral)=   534.00000
<DFT>  Total Spin Moment (muB) =  0.000000000000
<DFT>  Mixing_weight= 0.030000000000
<DFT>  Uele   = -258.379572721570  dUele     =   0.000000072790
<DFT>  NormRD =    0.000000001416  Criterion =   0.000000010000

******************* MD= 1  SCF=38 *******************
<Poisson>  Poisson's equation using FFT...
<Set_Hamiltonian>  Hamiltonian matrix for VNA+dVH+Vxc...
<Band>  Solving the eigenvalue problem...
 KGrids1:  -0.43750  -0.31250  -0.18750  -0.06250   0.06250   0.18750   0.31250   0.43750 
 KGrids2:  -0.43750  -0.31250  -0.18750  -0.06250   0.06250   0.18750   0.31250   0.43750 
 KGrids3:   0.00000 
<Band_DFT>  Eigen, time=14.099071
<Band_DFT>  DM, time=0.000001
    1    C  MulP   1.9998  1.9998 sum   3.9995
    2    C  MulP   1.9998  1.9998 sum   3.9995
    3    C  MulP   1.9997  1.9997 sum   3.9994
    4    C  MulP   1.9997  1.9997 sum   3.9995
    5    C  MulP   2.0000  2.0000 sum   4.0001
    6    C  MulP   1.9998  1.9998 sum   3.9996
    7    C  MulP   1.9999  1.9999 sum   3.9999
    8    C  MulP   1.9997  1.9997 sum   3.9995
    9    C  MulP   2.0000  2.0000 sum   4.0000
   10    C  MulP   1.9997  1.9997 sum   3.9993
   11    C  MulP   1.9986  1.9986 sum   3.9973
   12    C  MulP   2.0003  2.0003 sum   4.0007
   13    C  MulP   2.0000  2.0000 sum   3.9999
   14    C  MulP   2.0000  2.0000 sum   3.9999
   15    C  MulP   2.0000  2.0000 sum   4.0000
   16    C  MulP   2.0000  2.0000 sum   3.9999
   17    C  MulP   2.0000  2.0000 sum   4.0000
   18    C  MulP   1.9995  1.9995 sum   3.9990
   19    C  MulP   2.0033  2.0033 sum   4.0065
   20    C  MulP   2.0013  2.0013 sum   4.0026
     ..........
     ......

[...]
<Poisson>  Poisson's equation using FFT...
<Set_Hamiltonian>  Hamiltonian matrix for VNA+dVH+Vxc...
<Band>  Solving the eigenvalue problem...
 KGrids1:  -0.43750  -0.31250  -0.18750  -0.06250   0.06250   0.18750   0.31250   0.43750 
 KGrids2:  -0.43750  -0.31250  -0.18750  -0.06250   0.06250   0.18750   0.31250   0.43750 
 KGrids3:   0.00000 
<Band_DFT>  Eigen, time=14.060703
<Band_DFT>  DM, time=0.000000
    1    C  MulP   1.9997  1.9997 sum   3.9995
    2    C  MulP   1.9998  1.9998 sum   3.9996
    3    C  MulP   1.9997  1.9997 sum   3.9994
    4    C  MulP   1.9998  1.9998 sum   3.9995
    5    C  MulP   2.0000  2.0000 sum   4.0001
    6    C  MulP   1.9998  1.9998 sum   3.9996
    7    C  MulP   1.9999  1.9999 sum   3.9999
    8    C  MulP   1.9997  1.9997 sum   3.9995
    9    C  MulP   2.0000  2.0000 sum   4.0001
   10    C  MulP   1.9996  1.9996 sum   3.9993
   11    C  MulP   1.9987  1.9987 sum   3.9973
   12    C  MulP   2.0003  2.0003 sum   4.0007
   13    C  MulP   2.0000  2.0000 sum   4.0000
   14    C  MulP   1.9999  1.9999 sum   3.9999
   15    C  MulP   2.0000  2.0000 sum   4.0000
   16    C  MulP   1.9999  1.9999 sum   3.9999
   17    C  MulP   2.0000  2.0000 sum   4.0000
   18    C  MulP   1.9995  1.9995 sum   3.9991
   19    C  MulP   2.0034  2.0034 sum   4.0068
   20    C  MulP   2.0014  2.0014 sum   4.0028
     ..........
     ......

 Sum of MulP: up   =   267.00000 down          =   267.00000
              total=   534.00000 ideal(neutral)=   534.00000
<DFT>  Total Spin Moment (muB) =  0.000000000000
<DFT>  Mixing_weight= 0.030000000000
<DFT>  Uele   = -258.287781480620  dUele     =   0.000000005240
<DFT>  NormRD =    0.000000105158  Criterion =   0.000000010000
<MD=46>  Force calculation
  Force calculation #1
  Force calculation #2
  Force calculation #3
  Force calculation #4
  Force calculation #5
<MD=46>  Total Energy
  Force calculation #6
  Force calculation #7

*******************************************************
                  Dipole moment (Debye)                 
*******************************************************

 Absolute D       18.24980751

                      Dx                Dy                Dz
 Total             13.63284602      -12.06870907       -1.24388300
 Core           12637.62703310    21903.36982775    27406.80646549
 Electron      -12623.99418708   -21915.43853683   -27408.05034849
 Back ground       -0.00000000       -0.00000000       -0.00000000

*******************************************************
                Total Energy (Hartree) at MD =46        
*******************************************************

  Uele  =    -258.287781480620

  Ukin  =     572.413016159532
  UH0   =   -7639.472447121329
  UH1   =       1.923000787886
  Una   =    -419.925753063844
  Unl   =     -59.496371116449
  Uxc0  =    -130.721679456875
  Uxc1  =    -130.721679456875
  Ucore =    7003.526697696139
  Uhub  =       0.000000000000
  Ucs   =       0.000000000000
  Uzs   =       0.000000000000
  Uzo   =       0.000000000000
  Uef   =       0.000000000000
  UvdW  =       0.000000000000
  Uch   =       0.000000000000
  Utot  =    -802.475215571815

  UpV   =       0.000000000000
  Enpy  =    -802.475215571815
  Note:

  Uele:   band energy
  Ukin:   kinetic energy
  UH0:    electric part of screened Coulomb energy
  UH1:    difference electron-electron Coulomb energy
  Una:    neutral atom potential energy
  Unl:    non-local potential energy
  Uxc0:   exchange-correlation energy for alpha spin
  Uxc1:   exchange-correlation energy for beta spin
  Ucore:  core-core Coulomb energy
  Uhub:   LDA+U energy
  Ucs:    constraint energy for spin orientation
  Uzs:    Zeeman term for spin magnetic moment
  Uzo:    Zeeman term for orbital magnetic moment
  Uef:    electric energy by electric field
  UvdW:   semi-empirical vdW energy 
  Uch:    penalty term to create a core hole
  UpV:    pressure times volume
  Enpy:   Enthalpy = Utot + UpV
  (see also PRB 72, 045121(2005) for the energy contributions)


*******************************************************
           Computational times (s) at MD =46            
*******************************************************

  DFT in total      =  243.66432

  Set_OLP_Kin       =    1.10141
  Set_Nonlocal      =    2.89434
  Set_ProExpn_VNA   =    4.74567
  Set_Hamiltonian   =   13.65835
  Poisson           =    0.16277
  diagonalization   =  207.78650
  Mixing_DM         =    1.41954
  Force             =    3.83475
  Total_Energy      =    1.28516
  Set_Aden_Grid     =    0.27313
  Set_Orbitals_Grid =    0.55850
  Set_Density_Grid  =    5.31007
  RestartFileDFT    =    0.29795
  Mulliken_Charge   =    0.01181
  FFT(2D)_Density   =    0.18378

The SCF was achieved at MD=  46

*******************************************************
             MD or geometry opt. at MD =46              
*******************************************************


The geometry optimization was achieved.
<RF>  |Maximum force| (Hartree/Bohr) = 0.000082340701
<RF>  Criterion       (Hartree/Bohr) = 0.000100000000

     atom=   1, XYZ(ang) Fxyz(a.u.)=   0.0075    1.4168   10.4219    -0.0000    0.0000    0.0000
     atom=   2, XYZ(ang) Fxyz(a.u.)=  -1.2273    3.5532   10.4439     0.0000    0.0000   -0.0000
     atom=   3, XYZ(ang) Fxyz(a.u.)=  -2.4595    5.6892   10.4558     0.0000    0.0000   -0.0000
     atom=   4, XYZ(ang) Fxyz(a.u.)=  -3.6918    7.8275   10.4348     0.0000    0.0000   -0.0000
     atom=   5, XYZ(ang) Fxyz(a.u.)=  -4.9257    9.9642   10.4066     0.0000   -0.0000   -0.0001
     atom=   6, XYZ(ang) Fxyz(a.u.)=  -6.1599   12.1014   10.3918    -0.0000    0.0000   -0.0000
     atom=   7, XYZ(ang) Fxyz(a.u.)=  -7.3930   14.2392   10.3921    -0.0000    0.0000    0.0001
     atom=   8, XYZ(ang) Fxyz(a.u.)=  -8.6270   16.3755   10.4027     0.0000    0.0000    0.0000
     atom=   9, XYZ(ang) Fxyz(a.u.)=   2.4751    1.4194   10.4375     0.0000    0.0000    0.0000
     atom=  10, XYZ(ang) Fxyz(a.u.)=   1.2391    3.5507   10.4894    -0.0000    0.0000   -0.0000
     atom=  11, XYZ(ang) Fxyz(a.u.)=   0.0057    5.6888   10.5476    -0.0000    0.0000   -0.0000
     atom=  12, XYZ(ang) Fxyz(a.u.)=  -1.2257    7.8261   10.5432     0.0000    0.0000   -0.0000
     atom=  13, XYZ(ang) Fxyz(a.u.)=  -2.4574    9.9636   10.4744     0.0000    0.0000   -0.0001
     atom=  14, XYZ(ang) Fxyz(a.u.)=  -3.6930   12.1016   10.4153     0.0000    0.0000   -0.0000
     atom=  15, XYZ(ang) Fxyz(a.u.)=  -4.9267   14.2392   10.3907     0.0000    0.0000    0.0000
     atom=  16, XYZ(ang) Fxyz(a.u.)=  -6.1598   16.3770   10.4005    -0.0000   -0.0000    0.0000
     atom=  17, XYZ(ang) Fxyz(a.u.)=   4.9435    1.4195   10.4376    -0.0000    0.0000   -0.0000
     atom=  18, XYZ(ang) Fxyz(a.u.)=   3.7092    3.5581   10.5269     0.0000    0.0000   -0.0000
     atom=  19, XYZ(ang) Fxyz(a.u.)=   2.4667    5.6841   10.6460    -0.0000    0.0000    0.0000
     atom=  20, XYZ(ang) Fxyz(a.u.)=   1.2417    7.8161   10.7384    -0.0000    0.0000   -0.0000
     atom=  21, XYZ(ang) Fxyz(a.u.)=   0.0064    9.9666   10.6105     0.0000    0.0000   -0.0000
     atom=  22, XYZ(ang) Fxyz(a.u.)=  -1.2285   12.1025   10.4820     0.0000    0.0000   -0.0000
     atom=  23, XYZ(ang) Fxyz(a.u.)=  -2.4601   14.2383   10.4140    -0.0000    0.0000    0.0000
     atom=  24, XYZ(ang) Fxyz(a.u.)=  -3.6928   16.3755   10.4014     0.0000    0.0000    0.0000
     atom=  25, XYZ(ang) Fxyz(a.u.)=   7.4110    1.4169   10.4216     0.0000    0.0000   -0.0000
     atom=  26, XYZ(ang) Fxyz(a.u.)=   6.1793    3.5509   10.4912     0.0000    0.0000   -0.0000
     atom=  27, XYZ(ang) Fxyz(a.u.)=   4.9515    5.6843   10.6489    -0.0000    0.0000   -0.0000
     atom=  28, XYZ(ang) Fxyz(a.u.)=   3.7082    7.7764   11.0834    -0.0000    0.0000    0.0000
     atom=  29, XYZ(ang) Fxyz(a.u.)=   2.4460    9.9900   10.8046     0.0000   -0.0000   -0.0000
     atom=  30, XYZ(ang) Fxyz(a.u.)=   1.2354   12.1052   10.5618     0.0000   -0.0000   -0.0000
     atom=  31, XYZ(ang) Fxyz(a.u.)=   0.0064   14.2389   10.4534     0.0000    0.0000   -0.0000
     atom=  32, XYZ(ang) Fxyz(a.u.)=  -1.2258   16.3747   10.4101     0.0000    0.0000    0.0000
     atom=  33, XYZ(ang) Fxyz(a.u.)=   9.8782    1.4162   10.4071     0.0000    0.0000    0.0000
     atom=  34, XYZ(ang) Fxyz(a.u.)=   8.6457    3.5533   10.4455     0.0000    0.0000   -0.0000
     atom=  35, XYZ(ang) Fxyz(a.u.)=   7.4126    5.6889   10.5523     0.0000    0.0000   -0.0000
     atom=  36, XYZ(ang) Fxyz(a.u.)=   6.1763    7.8162   10.7448     0.0000    0.0000    0.0000
     atom=  37, XYZ(ang) Fxyz(a.u.)=   4.9722    9.9900   10.8096     0.0000   -0.0000    0.0000
     atom=  38, XYZ(ang) Fxyz(a.u.)=   3.7092   12.1071   10.6348     0.0000   -0.0000   -0.0000
     atom=  39, XYZ(ang) Fxyz(a.u.)=   2.4734   14.2372   10.4953     0.0000    0.0000   -0.0000
     atom=  40, XYZ(ang) Fxyz(a.u.)=   1.2417   16.3730   10.4234     0.0000    0.0000   -0.0000
     atom=  41, XYZ(ang) Fxyz(a.u.)=  12.3448    1.4158   10.4003     0.0000    0.0000   -0.0000
     atom=  42, XYZ(ang) Fxyz(a.u.)=  11.1116    3.5531   10.4065     0.0000    0.0000   -0.0000
     atom=  43, XYZ(ang) Fxyz(a.u.)=   9.8778    5.6893   10.4591     0.0000    0.0000   -0.0000
     atom=  44, XYZ(ang) Fxyz(a.u.)=   8.6441    7.8261   10.5496     0.0000    0.0000    0.0000
     atom=  45, XYZ(ang) Fxyz(a.u.)=   7.4120    9.9666   10.6182     0.0000    0.0000    0.0000
     atom=  46, XYZ(ang) Fxyz(a.u.)=   6.1832   12.1053   10.5678     0.0000    0.0000   -0.0000
     atom=  47, XYZ(ang) Fxyz(a.u.)=   4.9452   14.2373   10.4975     0.0000    0.0000   -0.0001
     atom=  48, XYZ(ang) Fxyz(a.u.)=   3.7093   16.3729   10.4336     0.0000    0.0000   -0.0000
     atom=  49, XYZ(ang) Fxyz(a.u.)=  14.8120    1.4158   10.4008     0.0000    0.0000   -0.0000
     atom=  50, XYZ(ang) Fxyz(a.u.)=  13.5784    3.5528   10.3916     0.0000    0.0000   -0.0000
     atom=  51, XYZ(ang) Fxyz(a.u.)=  12.3448    5.6903   10.4033     0.0000    0.0000   -0.0000
     atom=  52, XYZ(ang) Fxyz(a.u.)=  11.1100    7.8275   10.4382     0.0000    0.0000   -0.0000
     atom=  53, XYZ(ang) Fxyz(a.u.)=   9.8759    9.9636   10.4802     0.0000    0.0000    0.0000
     atom=  54, XYZ(ang) Fxyz(a.u.)=   8.6471   12.1025   10.4885     0.0000    0.0000    0.0000
     atom=  55, XYZ(ang) Fxyz(a.u.)=   7.4123   14.2390   10.4578     0.0000    0.0000   -0.0000
     atom=  56, XYZ(ang) Fxyz(a.u.)=   6.1769   16.3731   10.4253     0.0000    0.0000   -0.0000
     atom=  57, XYZ(ang) Fxyz(a.u.)=  17.2786    1.4162   10.4076     0.0000    0.0000   -0.0000
     atom=  58, XYZ(ang) Fxyz(a.u.)=  16.0451    3.5531   10.4060     0.0000    0.0000    0.0000
     atom=  59, XYZ(ang) Fxyz(a.u.)=  14.8119    5.6903   10.4025     0.0000    0.0000   -0.0000
     atom=  60, XYZ(ang) Fxyz(a.u.)=  13.5783    7.8271   10.4006     0.0000   -0.0000   -0.0001
     atom=  61, XYZ(ang) Fxyz(a.u.)=  12.3441    9.9642   10.4085    -0.0000   -0.0000   -0.0000
     atom=  62, XYZ(ang) Fxyz(a.u.)=  11.1115   12.1016   10.4190     0.0000    0.0000    0.0000
     atom=  63, XYZ(ang) Fxyz(a.u.)=   9.8787   14.2383   10.4177     0.0000    0.0000    0.0000
     atom=  64, XYZ(ang) Fxyz(a.u.)=   8.6444   16.3747   10.4123     0.0000    0.0000    0.0000
     atom=  65, XYZ(ang) Fxyz(a.u.)=   1.2416    0.7060   10.4172     0.0000    0.0000   -0.0000
     atom=  66, XYZ(ang) Fxyz(a.u.)=   0.0061    2.8399   10.4475     0.0000    0.0000    0.0000
     atom=  67, XYZ(ang) Fxyz(a.u.)=  -1.2287    4.9765   10.4785     0.0000    0.0000    0.0000
     atom=  68, XYZ(ang) Fxyz(a.u.)=  -2.4576    7.1155   10.4736    -0.0000    0.0000   -0.0000
     atom=  69, XYZ(ang) Fxyz(a.u.)=  -3.6916    9.2518   10.4349     0.0000    0.0000    0.0000
     atom=  70, XYZ(ang) Fxyz(a.u.)=  -4.9262   11.3890   10.4013    -0.0000   -0.0000    0.0000
     atom=  71, XYZ(ang) Fxyz(a.u.)=  -6.1598   13.5265   10.3886    -0.0000    0.0000   -0.0000
     atom=  72, XYZ(ang) Fxyz(a.u.)=  -7.3934   15.6633   10.3954     0.0000    0.0000   -0.0001
     atom=  73, XYZ(ang) Fxyz(a.u.)=   3.7093    0.7062   10.4236    -0.0000    0.0000   -0.0000
     atom=  74, XYZ(ang) Fxyz(a.u.)=   2.4733    2.8416   10.4830    -0.0000    0.0000    0.0000
     atom=  75, XYZ(ang) Fxyz(a.u.)=   1.2351    4.9734   10.5514    -0.0000    0.0000    0.0000
     atom=  76, XYZ(ang) Fxyz(a.u.)=   0.0063    7.1122   10.6066    -0.0000    0.0000    0.0000
     atom=  77, XYZ(ang) Fxyz(a.u.)=  -1.2256    9.2529   10.5444    -0.0000    0.0000    0.0000
     atom=  78, XYZ(ang) Fxyz(a.u.)=  -2.4592   11.3899   10.4570    -0.0000    0.0000    0.0000
     atom=  79, XYZ(ang) Fxyz(a.u.)=  -3.6929   13.5261   10.4040    -0.0000    0.0000    0.0000
     atom=  80, XYZ(ang) Fxyz(a.u.)=  -4.9261   15.6633   10.3946    -0.0000    0.0000   -0.0000
     atom=  81, XYZ(ang) Fxyz(a.u.)=   6.1771    0.7060   10.4167     0.0000    0.0000    0.0000
     atom=  82, XYZ(ang) Fxyz(a.u.)=   4.9453    2.8417   10.4839     0.0000    0.0000    0.0000
     atom=  83, XYZ(ang) Fxyz(a.u.)=   3.7092    4.9717   10.6195    -0.0000    0.0000    0.0000
     atom=  84, XYZ(ang) Fxyz(a.u.)=   2.4457    7.0876   10.7950     0.0000    0.0000    0.0000
     atom=  85, XYZ(ang) Fxyz(a.u.)=   1.2420    9.2622   10.7421    -0.0000    0.0000    0.0001
     atom=  86, XYZ(ang) Fxyz(a.u.)=   0.0060   11.3900   10.5542     0.0000    0.0000    0.0000
     atom=  87, XYZ(ang) Fxyz(a.u.)=  -1.2269   13.5258   10.4470     0.0000    0.0000    0.0000
     atom=  88, XYZ(ang) Fxyz(a.u.)=  -2.4593   15.6629   10.4052     0.0000    0.0000   -0.0000
     atom=  89, XYZ(ang) Fxyz(a.u.)=   8.6447    0.7043   10.4096     0.0000    0.0000    0.0000
     atom=  90, XYZ(ang) Fxyz(a.u.)=   7.4125    2.8400   10.4486     0.0000    0.0000    0.0000
     atom=  91, XYZ(ang) Fxyz(a.u.)=   6.1833    4.9736   10.5548     0.0000    0.0000    0.0000
     atom=  92, XYZ(ang) Fxyz(a.u.)=   4.9722    7.0878   10.7993     0.0000   -0.0000    0.0000
     atom=  93, XYZ(ang) Fxyz(a.u.)=   3.7085    9.2989   11.0901    -0.0000   -0.0000    0.0000
     atom=  94, XYZ(ang) Fxyz(a.u.)=   2.4669   11.3942   10.6592    -0.0000    0.0000    0.0001
     atom=  95, XYZ(ang) Fxyz(a.u.)=   1.2394   13.5280   10.4997     0.0000    0.0000    0.0000
     atom=  96, XYZ(ang) Fxyz(a.u.)=   0.0079   15.6621   10.4259     0.0000    0.0000   -0.0000
     atom=  97, XYZ(ang) Fxyz(a.u.)=  11.1116    0.7036   10.4063     0.0000    0.0000   -0.0000
     atom=  98, XYZ(ang) Fxyz(a.u.)=   9.8789    2.8408   10.4151     0.0000    0.0000    0.0000
     atom=  99, XYZ(ang) Fxyz(a.u.)=   8.6472    4.9766   10.4818     0.0000    0.0000    0.0000
     atom= 100, XYZ(ang) Fxyz(a.u.)=   7.4120    7.1122   10.6129     0.0000    0.0000   -0.0000
     atom= 101, XYZ(ang) Fxyz(a.u.)=   6.1765    9.2623   10.7489     0.0000    0.0000   -0.0000
     atom= 102, XYZ(ang) Fxyz(a.u.)=   4.9516   11.3942   10.6634     0.0000    0.0000    0.0000
     atom= 103, XYZ(ang) Fxyz(a.u.)=   3.7094   13.5208   10.5419     0.0000    0.0000    0.0001
     atom= 104, XYZ(ang) Fxyz(a.u.)=   2.4753   15.6595   10.4477    -0.0000    0.0000    0.0000
     atom= 105, XYZ(ang) Fxyz(a.u.)=  13.5785    0.7021   10.4079     0.0000    0.0000    0.0000
     atom= 106, XYZ(ang) Fxyz(a.u.)=  12.3453    2.8400   10.3946     0.0000    0.0000   -0.0000
     atom= 107, XYZ(ang) Fxyz(a.u.)=  11.1116    4.9776   10.4178     0.0000    0.0000   -0.0000
     atom= 108, XYZ(ang) Fxyz(a.u.)=   9.8760    7.1155   10.4782     0.0000    0.0000   -0.0000
     atom= 109, XYZ(ang) Fxyz(a.u.)=   8.6441    9.2530   10.5512     0.0000    0.0000   -0.0000
     atom= 110, XYZ(ang) Fxyz(a.u.)=   7.4127   11.3900   10.5613     0.0000    0.0000   -0.0000
     atom= 111, XYZ(ang) Fxyz(a.u.)=   6.1793   13.5281   10.5042     0.0000    0.0000    0.0001
     atom= 112, XYZ(ang) Fxyz(a.u.)=   4.9435   15.6595   10.4491     0.0000    0.0000    0.0001
     atom= 113, XYZ(ang) Fxyz(a.u.)=  16.0454    0.7036   10.4074     0.0000    0.0000    0.0000
     atom= 114, XYZ(ang) Fxyz(a.u.)=  14.8115    2.8400   10.3947     0.0000    0.0000   -0.0000
     atom= 115, XYZ(ang) Fxyz(a.u.)=  13.5784    4.9779   10.3935     0.0000    0.0000    0.0000
     atom= 116, XYZ(ang) Fxyz(a.u.)=  12.3442    7.1151   10.4086    -0.0000   -0.0000    0.0000
     atom= 117, XYZ(ang) Fxyz(a.u.)=  11.1101    9.2519   10.4387     0.0000    0.0000   -0.0000
     atom= 118, XYZ(ang) Fxyz(a.u.)=   9.8779   11.3899   10.4624     0.0000    0.0000   -0.0000
     atom= 119, XYZ(ang) Fxyz(a.u.)=   8.6457   13.5258   10.4522     0.0000    0.0000    0.0000
     atom= 120, XYZ(ang) Fxyz(a.u.)=   7.4109   15.6621   10.4289     0.0000    0.0000    0.0000
     atom= 121, XYZ(ang) Fxyz(a.u.)=  18.5122    0.7043   10.4106     0.0000    0.0000    0.0000
     atom= 122, XYZ(ang) Fxyz(a.u.)=  17.2780    2.8407   10.4146     0.0000    0.0000    0.0000
     atom= 123, XYZ(ang) Fxyz(a.u.)=  16.0451    4.9776   10.4162     0.0000    0.0000   -0.0000
     atom= 124, XYZ(ang) Fxyz(a.u.)=  14.8125    7.1151   10.4072    -0.0000    0.0000    0.0000
     atom= 125, XYZ(ang) Fxyz(a.u.)=  13.5784    9.2522   10.4006     0.0000   -0.0000    0.0000
     atom= 126, XYZ(ang) Fxyz(a.u.)=  12.3448   11.3890   10.4030     0.0000    0.0000   -0.0000
     atom= 127, XYZ(ang) Fxyz(a.u.)=  11.1116   13.5261   10.4069     0.0000    0.0000   -0.0001
     atom= 128, XYZ(ang) Fxyz(a.u.)=   9.8781   15.6628   10.4076     0.0000    0.0000   -0.0000
     atom= 129, XYZ(ang) Fxyz(a.u.)=   3.7051    8.5312   12.3398    -0.0000    0.0000    0.0001
     atom= 130, XYZ(ang) Fxyz(a.u.)=   4.8808    8.5481   16.2993     0.0000    0.0000    0.0000
     atom= 131, XYZ(ang) Fxyz(a.u.)=   4.8547    8.5968   15.1129    -0.0001   -0.0000   -0.0000
     atom= 132, XYZ(ang) Fxyz(a.u.)=   4.9070    8.4989   17.4890     0.0000    0.0000   -0.0001

outputting data on grids to files...


***********************************************************
***********************************************************
               Computational Time (second)                 
***********************************************************
***********************************************************

                               Min_ID   Min_Time       Max_ID   Max_Time
   Total Computational Time =     8    13037.855          0    13038.015
   readfile                 =     2        2.462          0        2.474
   truncation               =    39       40.528         15       46.132
   MD_pac                   =     0        2.521         31        2.706
   OutData                  =    39        0.645          0        0.797
   DFT                      =    15    12985.813         39    12991.417

*** In DFT ***

   Set_OLP_Kin              =    39       23.250         31       78.260
   Set_Nonlocal             =    31      107.079         39      162.067
   Set_ProExpn_VNA          =    39      195.319         31      227.076
   Set_Hamiltonian          =    34      730.607          1      730.620
   Poisson                  =    34        8.789          9        8.791
   Diagonalization          =     0    11172.376         24    11172.395
   Mixing_DM                =    56       77.366         14       77.371
   Force                    =    18      177.256         44      177.258
   Total_Energy             =     1       59.242          0       59.256
   Set_Aden_Grid            =    31        2.901         39       34.671
   Set_Orbitals_Grid        =    39       10.622         15       37.457
   Set_Density_Grid         =    42      271.522         29      290.212
   RestartFileDFT           =    31        3.221         39       19.225
   Mulliken_Charge          =    59        0.622         24        0.622
   FFT(2D)_Density          =     1        9.584          9        9.592
   Others                   =    15        6.277         40       36.719

The calculation was normally finished.
