
The number of threads in each node for OpenMP parallelization is 1.


*******************************************************
*******************************************************
 Welcome to OpenMX   Ver. 3.9.9                           
 Copyright (C), 2002-2019, T. Ozaki                    
 OpenMX comes with ABSOLUTELY NO WARRANTY.             
 This is free software, and you are welcome to         
 redistribute it under the constitution of the GNU-GPL.
*******************************************************
*******************************************************

Automatic determination of Kerker_factor:   3.992945286074


<Input_std>  Your input file was normally read.
<Input_std>  The system includes 3 species and 133 atoms.

*******************************************************
                     PAO and VPS                       
*******************************************************

<SetPara_DFT>  PAOs of species H were normally found.
<SetPara_DFT>  PAOs of species C were normally found.
<SetPara_DFT>  PAOs of species O were normally found.
<SetPara_DFT>  VPSs of species H were normally found.
               H_PBE19.vps is j-dependent.
               In case of scf.SpinOrbit.Coupling=off,
               j-dependent pseudo potentials are averaged by j-degeneracy,
               which corresponds to a scalar relativistic treatment.
<SetPara_DFT>  VPSs of species C were normally found.
               C_PBE19.vps is j-dependent.
               In case of scf.SpinOrbit.Coupling=off,
               j-dependent pseudo potentials are averaged by j-degeneracy,
               which corresponds to a scalar relativistic treatment.
<SetPara_DFT>  VPSs of species O were normally found.
               O_PBE19.vps is j-dependent.
               In case of scf.SpinOrbit.Coupling=off,
               j-dependent pseudo potentials are averaged by j-degeneracy,
               which corresponds to a scalar relativistic treatment.

*******************************************************
     Fourier transform of PAO and projectors of VNL    
*******************************************************

<FT_PAO>          Fourier transform of pseudo atomic orbitals
<FT_NLP>          Fourier transform of non-local projectors
<FT_ProExpn_VNA>  Fourier transform of VNA separable projectors
<FT_VNA>          Fourier transform of VNA potentials
<FT_ProductPAO>   Fourier transform of product of PAOs

*******************************************************
  Allocation of atoms to processors at MD_iter=    1     
*******************************************************

 proc =   0  # of atoms=   2  estimated weight=         2.00000
 proc =   1  # of atoms=   2  estimated weight=         2.00000
 proc =   2  # of atoms=   2  estimated weight=         2.00000
 proc =   3  # of atoms=   2  estimated weight=         2.00000
 proc =   4  # of atoms=   2  estimated weight=         2.00000
 proc =   5  # of atoms=   2  estimated weight=         2.00000
 proc =   6  # of atoms=   2  estimated weight=         2.00000
 proc =   7  # of atoms=   2  estimated weight=         2.00000
 proc =   8  # of atoms=   2  estimated weight=         2.00000
 proc =   9  # of atoms=   2  estimated weight=         2.00000
 proc =  10  # of atoms=   2  estimated weight=         2.00000
 proc =  11  # of atoms=   2  estimated weight=         2.00000
 proc =  12  # of atoms=   2  estimated weight=         2.00000
 proc =  13  # of atoms=   2  estimated weight=         2.00000
 proc =  14  # of atoms=   2  estimated weight=         2.00000
 proc =  15  # of atoms=   3  estimated weight=         3.00000
 proc =  16  # of atoms=   2  estimated weight=         2.00000
 proc =  17  # of atoms=   2  estimated weight=         2.00000
 proc =  18  # of atoms=   2  estimated weight=         2.00000
 proc =  19  # of atoms=   2  estimated weight=         2.00000
 proc =  20  # of atoms=   2  estimated weight=         2.00000
 proc =  21  # of atoms=   2  estimated weight=         2.00000
 proc =  22  # of atoms=   2  estimated weight=         2.00000
 proc =  23  # of atoms=   2  estimated weight=         2.00000
 proc =  24  # of atoms=   2  estimated weight=         2.00000
 proc =  25  # of atoms=   2  estimated weight=         2.00000
 proc =  26  # of atoms=   2  estimated weight=         2.00000
 proc =  27  # of atoms=   2  estimated weight=         2.00000
 proc =  28  # of atoms=   2  estimated weight=         2.00000
 proc =  29  # of atoms=   2  estimated weight=         2.00000
 proc =  30  # of atoms=   2  estimated weight=         2.00000
 proc =  31  # of atoms=   3  estimated weight=         3.00000
 proc =  32  # of atoms=   2  estimated weight=         2.00000
 proc =  33  # of atoms=   2  estimated weight=         2.00000
 proc =  34  # of atoms=   2  estimated weight=         2.00000
 proc =  35  # of atoms=   2  estimated weight=         2.00000
 proc =  36  # of atoms=   2  estimated weight=         2.00000
 proc =  37  # of atoms=   2  estimated weight=         2.00000
 proc =  38  # of atoms=   2  estimated weight=         2.00000
 proc =  39  # of atoms=   2  estimated weight=         2.00000
 proc =  40  # of atoms=   2  estimated weight=         2.00000
 proc =  41  # of atoms=   2  estimated weight=         2.00000
 proc =  42  # of atoms=   2  estimated weight=         2.00000
 proc =  43  # of atoms=   2  estimated weight=         2.00000
 proc =  44  # of atoms=   2  estimated weight=         2.00000
 proc =  45  # of atoms=   2  estimated weight=         2.00000
 proc =  46  # of atoms=   2  estimated weight=         2.00000
 proc =  47  # of atoms=   3  estimated weight=         3.00000
 proc =  48  # of atoms=   2  estimated weight=         2.00000
 proc =  49  # of atoms=   2  estimated weight=         2.00000
 proc =  50  # of atoms=   2  estimated weight=         2.00000
 proc =  51  # of atoms=   2  estimated weight=         2.00000
 proc =  52  # of atoms=   2  estimated weight=         2.00000
 proc =  53  # of atoms=   2  estimated weight=         2.00000
 proc =  54  # of atoms=   2  estimated weight=         2.00000
 proc =  55  # of atoms=   3  estimated weight=         3.00000
 proc =  56  # of atoms=   2  estimated weight=         2.00000
 proc =  57  # of atoms=   2  estimated weight=         2.00000
 proc =  58  # of atoms=   2  estimated weight=         2.00000
 proc =  59  # of atoms=   2  estimated weight=         2.00000
 proc =  60  # of atoms=   2  estimated weight=         2.00000
 proc =  61  # of atoms=   2  estimated weight=         2.00000
 proc =  62  # of atoms=   2  estimated weight=         2.00000
 proc =  63  # of atoms=   3  estimated weight=         3.00000




*******************************************************
        Analysis of neighbors and setting of grids        
*******************************************************

TFNAN=    6078   Average FNAN=  45.69925
TSNAN=       0   Average SNAN=   0.00000
<truncation> CpyCell= 1 ct_AN=   1 FNAN SNAN  45   0
<truncation> CpyCell= 1 ct_AN=   2 FNAN SNAN  45   0
<truncation> CpyCell= 1 ct_AN=   3 FNAN SNAN  45   0
<truncation> CpyCell= 1 ct_AN=   4 FNAN SNAN  45   0
<truncation> CpyCell= 1 ct_AN=   5 FNAN SNAN  45   0
<truncation> CpyCell= 1 ct_AN=   6 FNAN SNAN  45   0
<truncation> CpyCell= 1 ct_AN=   7 FNAN SNAN  45   0
<truncation> CpyCell= 1 ct_AN=   8 FNAN SNAN  45   0
<truncation> CpyCell= 1 ct_AN=   9 FNAN SNAN  45   0
<truncation> CpyCell= 1 ct_AN=  10 FNAN SNAN  46   0
<truncation> CpyCell= 1 ct_AN=  11 FNAN SNAN  47   0
<truncation> CpyCell= 1 ct_AN=  12 FNAN SNAN  47   0
<truncation> CpyCell= 1 ct_AN=  13 FNAN SNAN  45   0
<truncation> CpyCell= 1 ct_AN=  14 FNAN SNAN  45   0
<truncation> CpyCell= 1 ct_AN=  15 FNAN SNAN  45   0
<truncation> CpyCell= 1 ct_AN=  16 FNAN SNAN  45   0
<truncation> CpyCell= 1 ct_AN=  17 FNAN SNAN  45   0
<truncation> CpyCell= 1 ct_AN=  18 FNAN SNAN  47   0
<truncation> CpyCell= 1 ct_AN=  19 FNAN SNAN  49   0
<truncation> CpyCell= 1 ct_AN=  20 FNAN SNAN  49   0
     ..........
     ......

TFNAN=    6078   Average FNAN=  45.69925
TSNAN=       0   Average SNAN=   0.00000
<truncation> CpyCell= 2 ct_AN=   1 FNAN SNAN  45   0
<truncation> CpyCell= 2 ct_AN=   2 FNAN SNAN  45   0
<truncation> CpyCell= 2 ct_AN=   3 FNAN SNAN  45   0
<truncation> CpyCell= 2 ct_AN=   4 FNAN SNAN  45   0
<truncation> CpyCell= 2 ct_AN=   5 FNAN SNAN  45   0
<truncation> CpyCell= 2 ct_AN=   6 FNAN SNAN  45   0
<truncation> CpyCell= 2 ct_AN=   7 FNAN SNAN  45   0
<truncation> CpyCell= 2 ct_AN=   8 FNAN SNAN  45   0
<truncation> CpyCell= 2 ct_AN=   9 FNAN SNAN  45   0
<truncation> CpyCell= 2 ct_AN=  10 FNAN SNAN  46   0
<truncation> CpyCell= 2 ct_AN=  11 FNAN SNAN  47   0
<truncation> CpyCell= 2 ct_AN=  12 FNAN SNAN  47   0
<truncation> CpyCell= 2 ct_AN=  13 FNAN SNAN  45   0
<truncation> CpyCell= 2 ct_AN=  14 FNAN SNAN  45   0
<truncation> CpyCell= 2 ct_AN=  15 FNAN SNAN  45   0
<truncation> CpyCell= 2 ct_AN=  16 FNAN SNAN  45   0
<truncation> CpyCell= 2 ct_AN=  17 FNAN SNAN  45   0
<truncation> CpyCell= 2 ct_AN=  18 FNAN SNAN  47   0
<truncation> CpyCell= 2 ct_AN=  19 FNAN SNAN  49   0
<truncation> CpyCell= 2 ct_AN=  20 FNAN SNAN  49   0
     ..........
     ......

TFNAN=    6078   Average FNAN=  45.69925
TSNAN=       0   Average SNAN=   0.00000
<truncation> CpyCell= 2 ct_AN=   1 FNAN SNAN  45   0
<truncation> CpyCell= 2 ct_AN=   2 FNAN SNAN  45   0
<truncation> CpyCell= 2 ct_AN=   3 FNAN SNAN  45   0
<truncation> CpyCell= 2 ct_AN=   4 FNAN SNAN  45   0
<truncation> CpyCell= 2 ct_AN=   5 FNAN SNAN  45   0
<truncation> CpyCell= 2 ct_AN=   6 FNAN SNAN  45   0
<truncation> CpyCell= 2 ct_AN=   7 FNAN SNAN  45   0
<truncation> CpyCell= 2 ct_AN=   8 FNAN SNAN  45   0
<truncation> CpyCell= 2 ct_AN=   9 FNAN SNAN  45   0
<truncation> CpyCell= 2 ct_AN=  10 FNAN SNAN  46   0
<truncation> CpyCell= 2 ct_AN=  11 FNAN SNAN  47   0
<truncation> CpyCell= 2 ct_AN=  12 FNAN SNAN  47   0
<truncation> CpyCell= 2 ct_AN=  13 FNAN SNAN  45   0
<truncation> CpyCell= 2 ct_AN=  14 FNAN SNAN  45   0
<truncation> CpyCell= 2 ct_AN=  15 FNAN SNAN  45   0
<truncation> CpyCell= 2 ct_AN=  16 FNAN SNAN  45   0
<truncation> CpyCell= 2 ct_AN=  17 FNAN SNAN  45   0
<truncation> CpyCell= 2 ct_AN=  18 FNAN SNAN  47   0
<truncation> CpyCell= 2 ct_AN=  19 FNAN SNAN  49   0
<truncation> CpyCell= 2 ct_AN=  20 FNAN SNAN  49   0
     ..........
     ......

<Check_System> The system is slab.
lattice vectors (bohr)
A  = 37.299978480367,  0.000000000000,  0.000000000000
B  = -18.649989240184, 32.302728872609,  0.000000000000
C  =  0.000000000000,  0.000000000000, 39.684245760157
reciprocal lattice vectors (bohr^-1)
RA =  0.168450105420,  0.097254713866, -0.000000000000
RB =  0.000000000000,  0.194509427732,  0.000000000000
RC =  0.000000000000, -0.000000000000,  0.158329462658
Grid_Origin  0.051808343206  0.089739540907  0.304967571621
Cell_Volume =  47815.194201431834 (Bohr^3)
GridVol     =      0.006832303698 (Bohr^3)
Grid_Origin  0.051808343206  0.089739540907  0.304967571621
Cell_Volume =  47815.194201431834 (Bohr^3)
GridVol     =      0.006832303698 (Bohr^3)
<UCell_Box> Info. of cutoff energy and num. of grids
lattice vectors (bohr)
A  = 37.299978480367,  0.000000000000,  0.000000000000
B  = -18.649989240184, 32.302728872609,  0.000000000000
C  =  0.000000000000,  0.000000000000, 39.684245760157
reciprocal lattice vectors (bohr^-1)
RA =  0.168450105420,  0.097254713866, -0.000000000000
RB =  0.000000000000,  0.194509427732,  0.000000000000
RC =  0.000000000000, -0.000000000000,  0.158329462658
Required cutoff energy (Ryd) for 3D-grids = 300.0000
    Used cutoff energy (Ryd) for 3D-grids = 306.4547, 306.4547, 292.3957
Num. of grids of a-, b-, and c-axes = 180, 180, 216
Grid_Origin  0.051808343206  0.089739540907  0.304967571621
Cell_Volume =  47815.194201431834 (Bohr^3)
GridVol     =      0.006832303698 (Bohr^3)
Cell vectors (bohr) of the grid cell (gtv)
  gtv_a =  0.207222102669,  0.000000000000,  0.000000000000
  gtv_b = -0.103611051334,  0.179459604848,  0.000000000000
  gtv_c =  0.000000000000,  0.000000000000,  0.183723360001
  |gtv_a| =  0.207222102669
  |gtv_b| =  0.207222102419
  |gtv_c| =  0.183723360001
Num. of grids overlapping with atom    1 = 132432
Num. of grids overlapping with atom    2 = 132442
Num. of grids overlapping with atom    3 = 132422
Num. of grids overlapping with atom    4 = 132476
Num. of grids overlapping with atom    5 = 132399
Num. of grids overlapping with atom    6 = 132476
Num. of grids overlapping with atom    7 = 132425
Num. of grids overlapping with atom    8 = 132448
Num. of grids overlapping with atom    9 = 132401
Num. of grids overlapping with atom   10 = 132434
Num. of grids overlapping with atom   11 = 132405
Num. of grids overlapping with atom   12 = 132416
Num. of grids overlapping with atom   13 = 132403
Num. of grids overlapping with atom   14 = 132412
Num. of grids overlapping with atom   15 = 132403
Num. of grids overlapping with atom   16 = 132422
Num. of grids overlapping with atom   17 = 132418
Num. of grids overlapping with atom   18 = 132434
Num. of grids overlapping with atom   19 = 132419
Num. of grids overlapping with atom   20 = 132433
     ..........
     ......


*******************************************************
             SCF calculation at MD = 1                
*******************************************************

<MD= 1>  Calculation of the overlap matrix
<MD= 1>  Calculation of the nonlocal matrix
<MD= 1>  Calculation of the VNA projector matrix

******************* MD= 1  SCF= 1 *******************
<Band>  Solving the eigenvalue problem...
 KGrids1:  -0.43750  -0.31250  -0.18750  -0.06250   0.06250   0.18750   0.31250   0.43750 
 KGrids2:  -0.43750  -0.31250  -0.18750  -0.06250   0.06250   0.18750   0.31250   0.43750 
 KGrids3:   0.00000 
<Band_DFT>  Eigen, time=24.314949
<Band_DFT>  DM, time=0.000006
    1    C  MulP   1.9973  1.9973 sum   3.9946
    2    C  MulP   1.9969  1.9969 sum   3.9937
    3    C  MulP   2.0001  2.0001 sum   4.0002
    4    C  MulP   1.9969  1.9969 sum   3.9938
    5    C  MulP   1.9973  1.9973 sum   3.9946
    6    C  MulP   1.9966  1.9966 sum   3.9932
    7    C  MulP   1.9970  1.9970 sum   3.9940
    8    C  MulP   1.9966  1.9966 sum   3.9933
    9    C  MulP   1.9970  1.9970 sum   3.9941
   10    C  MulP   1.9969  1.9969 sum   3.9937
   11    C  MulP   2.0013  2.0013 sum   4.0026
   12    C  MulP   2.0014  2.0014 sum   4.0029
   13    C  MulP   1.9969  1.9969 sum   3.9939
   14    C  MulP   1.9969  1.9969 sum   3.9939
   15    C  MulP   1.9971  1.9971 sum   3.9943
   16    C  MulP   1.9970  1.9970 sum   3.9940
   17    C  MulP   1.9970  1.9970 sum   3.9940
   18    C  MulP   1.9978  1.9978 sum   3.9957
   19    C  MulP   1.9985  1.9985 sum   3.9970
   20    C  MulP   2.0164  2.0164 sum   4.0328
     ..........
     ......

 Sum of MulP: up   =   267.50000 down          =   267.50000
              total=   535.00000 ideal(neutral)=   535.00000
<DFT>  Total Spin Moment (muB) =  0.000000000000
<DFT>  Mixing_weight= 0.050000000000
<DFT>  Uele   = -221.118053419904  dUele     =   1.000000000000
<DFT>  NormRD =    1.000000000000  Criterion =   0.000000010000

******************* MD= 1  SCF= 2 *******************
<Poisson>  Poisson's equation using FFT...
<Set_Hamiltonian>  Hamiltonian matrix for VNA+dVH+Vxc...
<Band>  Solving the eigenvalue problem...
 KGrids1:  -0.43750  -0.31250  -0.18750  -0.06250   0.06250   0.18750   0.31250   0.43750 
 KGrids2:  -0.43750  -0.31250  -0.18750  -0.06250   0.06250   0.18750   0.31250   0.43750 
 KGrids3:   0.00000 
<Band_DFT>  Eigen, time=14.081065
<Band_DFT>  DM, time=0.000000
    1    C  MulP   1.9973  1.9973 sum   3.9946
    2    C  MulP   1.9969  1.9969 sum   3.9937
    3    C  MulP   2.0001  2.0001 sum   4.0002
    4    C  MulP   1.9969  1.9969 sum   3.9938
    5    C  MulP   1.9973  1.9973 sum   3.9946
    6    C  MulP   1.9966  1.9966 sum   3.9932
    7    C  MulP   1.9970  1.9970 sum   3.9940
    8    C  MulP   1.9966  1.9966 sum   3.9933
    9    C  MulP   1.9970  1.9970 sum   3.9941
   10    C  MulP   1.9969  1.9969 sum   3.9937
   11    C  MulP   2.0013  2.0013 sum   4.0026
   12    C  MulP   2.0014  2.0014 sum   4.0029
   13    C  MulP   1.9969  1.9969 sum   3.9939
   14    C  MulP   1.9969  1.9969 sum   3.9939
   15    C  MulP   1.9971  1.9971 sum   3.9943
   16    C  MulP   1.9970  1.9970 sum   3.9940
   17    C  MulP   1.9970  1.9970 sum   3.9940
   18    C  MulP   1.9978  1.9978 sum   3.9957
   19    C  MulP   1.9985  1.9985 sum   3.9970
   20    C  MulP   2.0164  2.0164 sum   4.0328
     ..........
     ......

 Sum of MulP: up   =   267.50000 down          =   267.50000
              total=   535.00000 ideal(neutral)=   535.00000
<DFT>  Total Spin Moment (muB) =  0.000000000000
<DFT>  Mixing_weight= 0.010000000000
<DFT>  Uele   = -221.118053419904  dUele     =   0.000000000000
<DFT>  NormRD =   10.490065233286  Criterion =   0.000000010000

******************* MD= 1  SCF= 3 *******************
<Poisson>  Poisson's equation using FFT...
<Set_Hamiltonian>  Hamiltonian matrix for VNA+dVH+Vxc...
<Band>  Solving the eigenvalue problem...
 KGrids1:  -0.43750  -0.31250  -0.18750  -0.06250   0.06250   0.18750   0.31250   0.43750 
 KGrids2:  -0.43750  -0.31250  -0.18750  -0.06250   0.06250   0.18750   0.31250   0.43750 
 KGrids3:   0.00000 
<Band_DFT>  Eigen, time=14.156244
<Band_DFT>  DM, time=0.000001
    1    C  MulP   1.9973  1.9973 sum   3.9947
    2    C  MulP   1.9969  1.9969 sum   3.9938
    3    C  MulP   2.0001  2.0001 sum   4.0002
    4    C  MulP   1.9969  1.9969 sum   3.9939
    5    C  MulP   1.9973  1.9973 sum   3.9946
    6    C  MulP   1.9967  1.9967 sum   3.9933
    7    C  MulP   1.9971  1.9971 sum   3.9941
    8    C  MulP   1.9967  1.9967 sum   3.9934
    9    C  MulP   1.9971  1.9971 sum   3.9942
   10    C  MulP   1.9969  1.9969 sum   3.9938
   11    C  MulP   2.0013  2.0013 sum   4.0025
   12    C  MulP   2.0014  2.0014 sum   4.0027
   13    C  MulP   1.9970  1.9970 sum   3.9940
   14    C  MulP   1.9970  1.9970 sum   3.9940
   15    C  MulP   1.9972  1.9972 sum   3.9943
   16    C  MulP   1.9971  1.9971 sum   3.9941
   17    C  MulP   1.9970  1.9970 sum   3.9941
   18    C  MulP   1.9979  1.9979 sum   3.9957
   19    C  MulP   1.9985  1.9985 sum   3.9970
   20    C  MulP   2.0160  2.0160 sum   4.0319
     ..........
     ......

 Sum of MulP: up   =   267.50000 down          =   267.50000
              total=   535.00000 ideal(neutral)=   535.00000
<DFT>  Total Spin Moment (muB) =  0.000000000000
<DFT>  Mixing_weight= 0.300000000000
<DFT>  Uele   = -221.488787748353  dUele     =   0.370734328449
<DFT>  NormRD =   10.355940366703  Criterion =   0.000000010000

******************* MD= 1  SCF= 4 *******************
<Poisson>  Poisson's equation using FFT...
<Set_Hamiltonian>  Hamiltonian matrix for VNA+dVH+Vxc...
<Band>  Solving the eigenvalue problem...
 KGrids1:  -0.43750  -0.31250  -0.18750  -0.06250   0.06250   0.18750   0.31250   0.43750 
 KGrids2:  -0.43750  -0.31250  -0.18750  -0.06250   0.06250   0.18750   0.31250   0.43750 
 KGrids3:   0.00000 
<Band_DFT>  Eigen, time=14.094687
<Band_DFT>  DM, time=0.000000
    1    C  MulP   1.9989  1.9989 sum   3.9978
    2    C  MulP   1.9989  1.9989 sum   3.9978
    3    C  MulP   1.9996  1.9996 sum   3.9991
    4    C  MulP   1.9990  1.9990 sum   3.9980
    5    C  MulP   1.9987  1.9987 sum   3.9974
    6    C  MulP   1.9986  1.9986 sum   3.9973
    7    C  MulP   1.9987  1.9987 sum   3.9975
    8    C  MulP   1.9985  1.9985 sum   3.9971
    9    C  MulP   1.9989  1.9989 sum   3.9978
   10    C  MulP   1.9987  1.9987 sum   3.9974
   11    C  MulP   1.9996  1.9996 sum   3.9993
   12    C  MulP   1.9992  1.9992 sum   3.9984
   13    C  MulP   1.9988  1.9988 sum   3.9976
   14    C  MulP   1.9987  1.9987 sum   3.9975
   15    C  MulP   1.9986  1.9986 sum   3.9972
   16    C  MulP   1.9987  1.9987 sum   3.9975
   17    C  MulP   1.9987  1.9987 sum   3.9973
   18    C  MulP   1.9985  1.9985 sum   3.9970
   19    C  MulP   1.9993  1.9993 sum   3.9985
   20    C  MulP   2.0007  2.0007 sum   4.0013
     ..........
     ......

 Sum of MulP: up   =   267.50000 down          =   267.50000
              total=   535.00000 ideal(neutral)=   535.00000
<DFT>  Total Spin Moment (muB) =  0.000000000000
<DFT>  Mixing_weight= 0.300000000000
<DFT>  Uele   = -232.538244042673  dUele     =  11.049456294320
<DFT>  NormRD =    6.584797534743  Criterion =   0.000000010000

******************* MD= 1  SCF= 5 *******************
<Poisson>  Poisson's equation using FFT...
<Set_Hamiltonian>  Hamiltonian matrix for VNA+dVH+Vxc...
<Band>  Solving the eigenvalue problem...
 KGrids1:  -0.43750  -0.31250  -0.18750  -0.06250   0.06250   0.18750   0.31250   0.43750 
 KGrids2:  -0.43750  -0.31250  -0.18750  -0.06250   0.06250   0.18750   0.31250   0.43750 
 KGrids3:   0.00000 
<Band_DFT>  Eigen, time=14.116677
<Band_DFT>  DM, time=0.000000
    1    C  MulP   1.9994  1.9994 sum   3.9988
    2    C  MulP   1.9992  1.9992 sum   3.9985
    3    C  MulP   1.9999  1.9999 sum   3.9997
    4    C  MulP   1.9992  1.9992 sum   3.9984
    5    C  MulP   1.9994  1.9994 sum   3.9987
    6    C  MulP   1.9992  1.9992 sum   3.9984
    7    C  MulP   1.9993  1.9993 sum   3.9985
    8    C  MulP   1.9992  1.9992 sum   3.9984
    9    C  MulP   1.9994  1.9994 sum   3.9988
   10    C  MulP   1.9993  1.9993 sum   3.9985
   11    C  MulP   1.9997  1.9997 sum   3.9995
   12    C  MulP   1.9997  1.9997 sum   3.9993
   13    C  MulP   1.9992  1.9992 sum   3.9985
   14    C  MulP   1.9992  1.9992 sum   3.9985
   15    C  MulP   1.9993  1.9993 sum   3.9986
   16    C  MulP   1.9993  1.9993 sum   3.9985
   17    C  MulP   1.9993  1.9993 sum   3.9986
   18    C  MulP   1.9988  1.9988 sum   3.9977
   19    C  MulP   1.9996  1.9996 sum   3.9993
   20    C  MulP   2.0013  2.0013 sum   4.0025
     ..........
     ......

 Sum of MulP: up   =   267.50000 down          =   267.50000
              total=   535.00000 ideal(neutral)=   535.00000
<DFT>  Total Spin Moment (muB) =  0.000000000000
<DFT>  Mixing_weight= 0.300000000000
<DFT>  Uele   = -240.097854873246  dUele     =   7.559610830573
<DFT>  NormRD =    4.447340926828  Criterion =   0.000000010000

******************* MD= 1  SCF= 6 *******************
<Poisson>  Poisson's equation using FFT...
<Set_Hamiltonian>  Hamiltonian matrix for VNA+dVH+Vxc...
<Band>  Solving the eigenvalue problem...
 KGrids1:  -0.43750  -0.31250  -0.18750  -0.06250   0.06250   0.18750   0.31250   0.43750 
 KGrids2:  -0.43750  -0.31250  -0.18750  -0.06250   0.06250   0.18750   0.31250   0.43750 
 KGrids3:   0.00000 
<Band_DFT>  Eigen, time=14.103801
<Band_DFT>  DM, time=0.000000
    1    C  MulP   1.9995  1.9995 sum   3.9990
    2    C  MulP   1.9993  1.9993 sum   3.9986
    3    C  MulP   2.0000  2.0000 sum   3.9999
    4    C  MulP   1.9993  1.9993 sum   3.9985
    5    C  MulP   1.9995  1.9995 sum   3.9990
    6    C  MulP   1.9993  1.9993 sum   3.9986
    7    C  MulP   1.9994  1.9994 sum   3.9988
    8    C  MulP   1.9993  1.9993 sum   3.9987
    9    C  MulP   1.9995  1.9995 sum   3.9991
   10    C  MulP   1.9994  1.9994 sum   3.9988
   11    C  MulP   2.0000  2.0000 sum   3.9999
   12    C  MulP   1.9999  1.9999 sum   3.9997
   13    C  MulP   1.9994  1.9994 sum   3.9988
   14    C  MulP   1.9994  1.9994 sum   3.9988
   15    C  MulP   1.9995  1.9995 sum   3.9990
   16    C  MulP   1.9994  1.9994 sum   3.9989
   17    C  MulP   1.9994  1.9994 sum   3.9989
   18    C  MulP   1.9991  1.9991 sum   3.9981
   19    C  MulP   1.9999  1.9999 sum   3.9999
   20    C  MulP   2.0018  2.0018 sum   4.0035
     ..........
     ......

 Sum of MulP: up   =   267.50000 down          =   267.50000
              total=   535.00000 ideal(neutral)=   535.00000
<DFT>  Total Spin Moment (muB) =  0.000000000000
<DFT>  Mixing_weight= 0.300000000000
<DFT>  Uele   = -245.098615329340  dUele     =   5.000760456094
<DFT>  NormRD =    3.030177967037  Criterion =   0.000000010000

******************* MD= 1  SCF= 7 *******************
<Poisson>  Poisson's equation using FFT...
<Set_Hamiltonian>  Hamiltonian matrix for VNA+dVH+Vxc...
<Band>  Solving the eigenvalue problem...
 KGrids1:  -0.43750  -0.31250  -0.18750  -0.06250   0.06250   0.18750   0.31250   0.43750 
 KGrids2:  -0.43750  -0.31250  -0.18750  -0.06250   0.06250   0.18750   0.31250   0.43750 
 KGrids3:   0.00000 
<Band_DFT>  Eigen, time=14.116247
<Band_DFT>  DM, time=0.000000
    1    C  MulP   1.9996  1.9996 sum   3.9991
    2    C  MulP   1.9994  1.9994 sum   3.9987
    3    C  MulP   2.0000  2.0000 sum   4.0000
    4    C  MulP   1.9993  1.9993 sum   3.9986
    5    C  MulP   1.9995  1.9995 sum   3.9990
    6    C  MulP   1.9994  1.9994 sum   3.9987
    7    C  MulP   1.9995  1.9995 sum   3.9990
    8    C  MulP   1.9994  1.9994 sum   3.9988
    9    C  MulP   1.9996  1.9996 sum   3.9992
   10    C  MulP   1.9995  1.9995 sum   3.9990
   11    C  MulP   2.0001  2.0001 sum   4.0001
   12    C  MulP   1.9999  1.9999 sum   3.9998
   13    C  MulP   1.9995  1.9995 sum   3.9989
   14    C  MulP   1.9994  1.9994 sum   3.9989
   15    C  MulP   1.9995  1.9995 sum   3.9991
   16    C  MulP   1.9995  1.9995 sum   3.9990
   17    C  MulP   1.9995  1.9995 sum   3.9990
   18    C  MulP   1.9992  1.9992 sum   3.9984
   19    C  MulP   2.0001  2.0001 sum   4.0002
   20    C  MulP   2.0018  2.0018 sum   4.0035
     ..........
     ......

 Sum of MulP: up   =   267.50000 down          =   267.50000
              total=   535.00000 ideal(neutral)=   535.00000
<DFT>  Total Spin Moment (muB) =  0.000000000000
<DFT>  Mixing_weight= 0.300000000000
<DFT>  Uele   = -248.436061512731  dUele     =   3.337446183391
<DFT>  NormRD =    2.074623136167  Criterion =   0.000000010000

******************* MD= 1  SCF= 8 *******************
<Poisson>  Poisson's equation using FFT...
<Set_Hamiltonian>  Hamiltonian matrix for VNA+dVH+Vxc...
<Band>  Solving the eigenvalue problem...
 KGrids1:  -0.43750  -0.31250  -0.18750  -0.06250   0.06250   0.18750   0.31250   0.43750 
 KGrids2:  -0.43750  -0.31250  -0.18750  -0.06250   0.06250   0.18750   0.31250   0.43750 
 KGrids3:   0.00000 
<Band_DFT>  Eigen, time=14.136198
<Band_DFT>  DM, time=0.000000
    1    C  MulP   1.9996  1.9996 sum   3.9992
    2    C  MulP   1.9994  1.9994 sum   3.9988
    3    C  MulP   2.0000  2.0000 sum   4.0001
    4    C  MulP   1.9993  1.9993 sum   3.9987
    5    C  MulP   1.9995  1.9995 sum   3.9991
    6    C  MulP   1.9994  1.9994 sum   3.9988
    7    C  MulP   1.9995  1.9995 sum   3.9990
    8    C  MulP   1.9994  1.9994 sum   3.9988
    9    C  MulP   1.9996  1.9996 sum   3.9993
   10    C  MulP   1.9995  1.9995 sum   3.9990
   11    C  MulP   2.0001  2.0001 sum   4.0002
   12    C  MulP   1.9999  1.9999 sum   3.9999
   13    C  MulP   1.9995  1.9995 sum   3.9990
   14    C  MulP   1.9995  1.9995 sum   3.9989
   15    C  MulP   1.9996  1.9996 sum   3.9991
   16    C  MulP   1.9995  1.9995 sum   3.9990
   17    C  MulP   1.9995  1.9995 sum   3.9990
   18    C  MulP   1.9993  1.9993 sum   3.9985
   19    C  MulP   2.0002  2.0002 sum   4.0003
   20    C  MulP   2.0017  2.0017 sum   4.0035
     ..........
     ......

 Sum of MulP: up   =   267.50000 down          =   267.50000
              total=   535.00000 ideal(neutral)=   535.00000
<DFT>  Total Spin Moment (muB) =  0.000000000000
<DFT>  Mixing_weight= 0.300000000000
<DFT>  Uele   = -250.717609640443  dUele     =   2.281548127711
<DFT>  NormRD =    1.426679772226  Criterion =   0.000000010000

******************* MD= 1  SCF= 9 *******************
<Poisson>  Poisson's equation using FFT...
<Set_Hamiltonian>  Hamiltonian matrix for VNA+dVH+Vxc...
<Band>  Solving the eigenvalue problem...
 KGrids1:  -0.43750  -0.31250  -0.18750  -0.06250   0.06250   0.18750   0.31250   0.43750 
 KGrids2:  -0.43750  -0.31250  -0.18750  -0.06250   0.06250   0.18750   0.31250   0.43750 
 KGrids3:   0.00000 
<Band_DFT>  Eigen, time=14.114024
<Band_DFT>  DM, time=0.000001
    1    C  MulP   1.9996  1.9996 sum   3.9992
    2    C  MulP   1.9994  1.9994 sum   3.9988
    3    C  MulP   2.0001  2.0001 sum   4.0001
    4    C  MulP   1.9994  1.9994 sum   3.9987
    5    C  MulP   1.9996  1.9996 sum   3.9991
    6    C  MulP   1.9994  1.9994 sum   3.9988
    7    C  MulP   1.9995  1.9995 sum   3.9991
    8    C  MulP   1.9994  1.9994 sum   3.9988
    9    C  MulP   1.9997  1.9997 sum   3.9993
   10    C  MulP   1.9995  1.9995 sum   3.9991
   11    C  MulP   2.0002  2.0002 sum   4.0003
   12    C  MulP   2.0000  2.0000 sum   3.9999
   13    C  MulP   1.9995  1.9995 sum   3.9990
   14    C  MulP   1.9995  1.9995 sum   3.9990
   15    C  MulP   1.9996  1.9996 sum   3.9991
   16    C  MulP   1.9995  1.9995 sum   3.9991
   17    C  MulP   1.9995  1.9995 sum   3.9991
   18    C  MulP   1.9993  1.9993 sum   3.9986
   19    C  MulP   2.0002  2.0002 sum   4.0004
   20    C  MulP   2.0017  2.0017 sum   4.0034
     ..........
     ......

 Sum of MulP: up   =   267.50000 down          =   267.50000
              total=   535.00000 ideal(neutral)=   535.00000
<DFT>  Total Spin Moment (muB) =  0.000000000000
<DFT>  Mixing_weight= 0.300000000000
<DFT>  Uele   = -252.322348621326  dUele     =   1.604738980883
<DFT>  NormRD =    0.984911490999  Criterion =   0.000000010000

******************* MD= 1  SCF=10 *******************
<Poisson>  Poisson's equation using FFT...
<Set_Hamiltonian>  Hamiltonian matrix for VNA+dVH+Vxc...
<Band>  Solving the eigenvalue problem...
 KGrids1:  -0.43750  -0.31250  -0.18750  -0.06250   0.06250   0.18750   0.31250   0.43750 
 KGrids2:  -0.43750  -0.31250  -0.18750  -0.06250   0.06250   0.18750   0.31250   0.43750 
 KGrids3:   0.00000 
<Band_DFT>  Eigen, time=14.125287
<Band_DFT>  DM, time=0.000000
    1    C  MulP   1.9996  1.9996 sum   3.9992
    2    C  MulP   1.9994  1.9994 sum   3.9988
    3    C  MulP   2.0001  2.0001 sum   4.0001
    4    C  MulP   1.9994  1.9994 sum   3.9987
    5    C  MulP   1.9996  1.9996 sum   3.9991
    6    C  MulP   1.9994  1.9994 sum   3.9988
    7    C  MulP   1.9995  1.9995 sum   3.9991
    8    C  MulP   1.9994  1.9994 sum   3.9988
    9    C  MulP   1.9997  1.9997 sum   3.9993
   10    C  MulP   1.9996  1.9996 sum   3.9991
   11    C  MulP   2.0002  2.0002 sum   4.0003
   12    C  MulP   2.0000  2.0000 sum   4.0000
   13    C  MulP   1.9995  1.9995 sum   3.9991
   14    C  MulP   1.9995  1.9995 sum   3.9990
   15    C  MulP   1.9996  1.9996 sum   3.9992
   16    C  MulP   1.9996  1.9996 sum   3.9991
   17    C  MulP   1.9995  1.9995 sum   3.9991
   18    C  MulP   1.9993  1.9993 sum   3.9986
   19    C  MulP   2.0002  2.0002 sum   4.0004
   20    C  MulP   2.0017  2.0017 sum   4.0034
     ..........
     ......

 Sum of MulP: up   =   267.50000 down          =   267.50000
              total=   535.00000 ideal(neutral)=   535.00000
<DFT>  Total Spin Moment (muB) =  0.000000000000
<DFT>  Mixing_weight= 0.300000000000
<DFT>  Uele   = -253.485461890476  dUele     =   1.163113269150
<DFT>  NormRD =    0.682254371148  Criterion =   0.000000010000

******************* MD= 1  SCF=11 *******************
<Poisson>  Poisson's equation using FFT...
<Set_Hamiltonian>  Hamiltonian matrix for VNA+dVH+Vxc...
<Band>  Solving the eigenvalue problem...
 KGrids1:  -0.43750  -0.31250  -0.18750  -0.06250   0.06250   0.18750   0.31250   0.43750 
 KGrids2:  -0.43750  -0.31250  -0.18750  -0.06250   0.06250   0.18750   0.31250   0.43750 
 KGrids3:   0.00000 
<Band_DFT>  Eigen, time=14.125524
<Band_DFT>  DM, time=0.000000
    1    C  MulP   1.9996  1.9996 sum   3.9993
    2    C  MulP   1.9994  1.9994 sum   3.9988
    3    C  MulP   2.0001  2.0001 sum   4.0001
    4    C  MulP   1.9994  1.9994 sum   3.9988
    5    C  MulP   1.9996  1.9996 sum   3.9992
    6    C  MulP   1.9994  1.9994 sum   3.9989
    7    C  MulP   1.9996  1.9996 sum   3.9991
    8    C  MulP   1.9994  1.9994 sum   3.9989
    9    C  MulP   1.9997  1.9997 sum   3.9993
   10    C  MulP   1.9996  1.9996 sum   3.9991
   11    C  MulP   2.0002  2.0002 sum   4.0003
   12    C  MulP   2.0000  2.0000 sum   4.0000
   13    C  MulP   1.9995  1.9995 sum   3.9991
   14    C  MulP   1.9995  1.9995 sum   3.9990
   15    C  MulP   1.9996  1.9996 sum   3.9992
   16    C  MulP   1.9996  1.9996 sum   3.9991
   17    C  MulP   1.9995  1.9995 sum   3.9991
   18    C  MulP   1.9993  1.9993 sum   3.9987
   19    C  MulP   2.0002  2.0002 sum   4.0004
   20    C  MulP   2.0017  2.0017 sum   4.0034
     ..........
     ......

 Sum of MulP: up   =   267.50000 down          =   267.50000
              total=   535.00000 ideal(neutral)=   535.00000
<DFT>  Total Spin Moment (muB) =  0.000000000000
<DFT>  Mixing_weight= 0.300000000000
<DFT>  Uele   = -254.354163383965  dUele     =   0.868701493490
<DFT>  NormRD =    0.474112530597  Criterion =   0.000000010000

******************* MD= 1  SCF=12 *******************
<Poisson>  Poisson's equation using FFT...
<Set_Hamiltonian>  Hamiltonian matrix for VNA+dVH+Vxc...
<Band>  Solving the eigenvalue problem...
 KGrids1:  -0.43750  -0.31250  -0.18750  -0.06250   0.06250   0.18750   0.31250   0.43750 
 KGrids2:  -0.43750  -0.31250  -0.18750  -0.06250   0.06250   0.18750   0.31250   0.43750 
 KGrids3:   0.00000 
<Band_DFT>  Eigen, time=14.140555
<Band_DFT>  DM, time=0.000000
    1    C  MulP   1.9996  1.9996 sum   3.9993
    2    C  MulP   1.9994  1.9994 sum   3.9988
    3    C  MulP   2.0001  2.0001 sum   4.0001
    4    C  MulP   1.9994  1.9994 sum   3.9988
    5    C  MulP   1.9996  1.9996 sum   3.9992
    6    C  MulP   1.9994  1.9994 sum   3.9989
    7    C  MulP   1.9996  1.9996 sum   3.9991
    8    C  MulP   1.9994  1.9994 sum   3.9989
    9    C  MulP   1.9997  1.9997 sum   3.9993
   10    C  MulP   1.9996  1.9996 sum   3.9991
   11    C  MulP   2.0002  2.0002 sum   4.0003
   12    C  MulP   2.0000  2.0000 sum   4.0000
   13    C  MulP   1.9995  1.9995 sum   3.9991
   14    C  MulP   1.9995  1.9995 sum   3.9990
   15    C  MulP   1.9996  1.9996 sum   3.9992
   16    C  MulP   1.9996  1.9996 sum   3.9991
   17    C  MulP   1.9996  1.9996 sum   3.9991
   18    C  MulP   1.9993  1.9993 sum   3.9987
   19    C  MulP   2.0002  2.0002 sum   4.0005
   20    C  MulP   2.0017  2.0017 sum   4.0034
     ..........
     ......

 Sum of MulP: up   =   267.50000 down          =   267.50000
              total=   535.00000 ideal(neutral)=   535.00000
<DFT>  Total Spin Moment (muB) =  0.000000000000
<DFT>  Mixing_weight= 0.300000000000
<DFT>  Uele   = -255.021924337249  dUele     =   0.667760953284
<DFT>  NormRD =    0.330504038024  Criterion =   0.000000010000

******************* MD= 1  SCF=13 *******************
<Poisson>  Poisson's equation using FFT...
<Set_Hamiltonian>  Hamiltonian matrix for VNA+dVH+Vxc...
<Band>  Solving the eigenvalue problem...
 KGrids1:  -0.43750  -0.31250  -0.18750  -0.06250   0.06250   0.18750   0.31250   0.43750 
 KGrids2:  -0.43750  -0.31250  -0.18750  -0.06250   0.06250   0.18750   0.31250   0.43750 
 KGrids3:   0.00000 
<Band_DFT>  Eigen, time=14.121185
<Band_DFT>  DM, time=0.000000
    1    C  MulP   1.9996  1.9996 sum   3.9993
    2    C  MulP   1.9994  1.9994 sum   3.9988
    3    C  MulP   2.0001  2.0001 sum   4.0001
    4    C  MulP   1.9994  1.9994 sum   3.9988
    5    C  MulP   1.9996  1.9996 sum   3.9992
    6    C  MulP   1.9994  1.9994 sum   3.9989
    7    C  MulP   1.9996  1.9996 sum   3.9991
    8    C  MulP   1.9994  1.9994 sum   3.9989
    9    C  MulP   1.9997  1.9997 sum   3.9993
   10    C  MulP   1.9996  1.9996 sum   3.9991
   11    C  MulP   2.0002  2.0002 sum   4.0003
   12    C  MulP   2.0000  2.0000 sum   4.0000
   13    C  MulP   1.9995  1.9995 sum   3.9991
   14    C  MulP   1.9995  1.9995 sum   3.9990
   15    C  MulP   1.9996  1.9996 sum   3.9992
   16    C  MulP   1.9996  1.9996 sum   3.9991
   17    C  MulP   1.9996  1.9996 sum   3.9991
   18    C  MulP   1.9993  1.9993 sum   3.9987
   19    C  MulP   2.0002  2.0002 sum   4.0005
   20    C  MulP   2.0017  2.0017 sum   4.0034
     ..........
     ......

 Sum of MulP: up   =   267.50000 down          =   267.50000
              total=   535.00000 ideal(neutral)=   535.00000
<DFT>  Total Spin Moment (muB) =  0.000000000000
<DFT>  Mixing_weight= 0.300000000000
<DFT>  Uele   = -255.548817748670  dUele     =   0.526893411421
<DFT>  NormRD =    0.231169253066  Criterion =   0.000000010000

******************* MD= 1  SCF=14 *******************
<Poisson>  Poisson's equation using FFT...
<Set_Hamiltonian>  Hamiltonian matrix for VNA+dVH+Vxc...
<Band>  Solving the eigenvalue problem...
 KGrids1:  -0.43750  -0.31250  -0.18750  -0.06250   0.06250   0.18750   0.31250   0.43750 
 KGrids2:  -0.43750  -0.31250  -0.18750  -0.06250   0.06250   0.18750   0.31250   0.43750 
 KGrids3:   0.00000 
<Band_DFT>  Eigen, time=14.167115
<Band_DFT>  DM, time=0.000000
    1    C  MulP   1.9996  1.9996 sum   3.9993
    2    C  MulP   1.9994  1.9994 sum   3.9988
    3    C  MulP   2.0001  2.0001 sum   4.0001
    4    C  MulP   1.9994  1.9994 sum   3.9988
    5    C  MulP   1.9996  1.9996 sum   3.9992
    6    C  MulP   1.9994  1.9994 sum   3.9989
    7    C  MulP   1.9996  1.9996 sum   3.9991
    8    C  MulP   1.9994  1.9994 sum   3.9989
    9    C  MulP   1.9997  1.9997 sum   3.9994
   10    C  MulP   1.9996  1.9996 sum   3.9991
   11    C  MulP   2.0002  2.0002 sum   4.0003
   12    C  MulP   2.0000  2.0000 sum   4.0000
   13    C  MulP   1.9995  1.9995 sum   3.9991
   14    C  MulP   1.9995  1.9995 sum   3.9990
   15    C  MulP   1.9996  1.9996 sum   3.9992
   16    C  MulP   1.9996  1.9996 sum   3.9991
   17    C  MulP   1.9996  1.9996 sum   3.9991
   18    C  MulP   1.9993  1.9993 sum   3.9987
   19    C  MulP   2.0002  2.0002 sum   4.0005
   20    C  MulP   2.0017  2.0017 sum   4.0034
     ..........
     ......

 Sum of MulP: up   =   267.50000 down          =   267.50000
              total=   535.00000 ideal(neutral)=   535.00000
<DFT>  Total Spin Moment (muB) =  0.000000000000
<DFT>  Mixing_weight= 0.300000000000
<DFT>  Uele   = -255.974147437062  dUele     =   0.425329688392
<DFT>  NormRD =    0.162345571070  Criterion =   0.000000010000

******************* MD= 1  SCF=15 *******************
<Poisson>  Poisson's equation using FFT...
<Set_Hamiltonian>  Hamiltonian matrix for VNA+dVH+Vxc...
<Band>  Solving the eigenvalue problem...
 KGrids1:  -0.43750  -0.31250  -0.18750  -0.06250   0.06250   0.18750   0.31250   0.43750 
 KGrids2:  -0.43750  -0.31250  -0.18750  -0.06250   0.06250   0.18750   0.31250   0.43750 
 KGrids3:   0.00000 
<Band_DFT>  Eigen, time=14.161533
<Band_DFT>  DM, time=0.000000
    1    C  MulP   1.9996  1.9996 sum   3.9993
    2    C  MulP   1.9994  1.9994 sum   3.9989
    3    C  MulP   2.0001  2.0001 sum   4.0001
    4    C  MulP   1.9994  1.9994 sum   3.9988
    5    C  MulP   1.9996  1.9996 sum   3.9992
    6    C  MulP   1.9994  1.9994 sum   3.9989
    7    C  MulP   1.9996  1.9996 sum   3.9991
    8    C  MulP   1.9994  1.9994 sum   3.9989
    9    C  MulP   1.9997  1.9997 sum   3.9994
   10    C  MulP   1.9996  1.9996 sum   3.9991
   11    C  MulP   2.0002  2.0002 sum   4.0004
   12    C  MulP   2.0000  2.0000 sum   4.0000
   13    C  MulP   1.9995  1.9995 sum   3.9991
   14    C  MulP   1.9995  1.9995 sum   3.9990
   15    C  MulP   1.9996  1.9996 sum   3.9992
   16    C  MulP   1.9996  1.9996 sum   3.9991
   17    C  MulP   1.9996  1.9996 sum   3.9991
   18    C  MulP   1.9993  1.9993 sum   3.9987
   19    C  MulP   2.0002  2.0002 sum   4.0005
   20    C  MulP   2.0017  2.0017 sum   4.0033
     ..........
     ......

 Sum of MulP: up   =   267.50000 down          =   267.50000
              total=   535.00000 ideal(neutral)=   535.00000
<DFT>  Total Spin Moment (muB) =  0.000000000000
<DFT>  Mixing_weight= 0.030000000000
<DFT>  Uele   = -256.324195934598  dUele     =   0.350048497535
<DFT>  NormRD =    0.115638929795  Criterion =   0.000000010000

******************* MD= 1  SCF=16 *******************
<Poisson>  Poisson's equation using FFT...
<Set_Hamiltonian>  Hamiltonian matrix for VNA+dVH+Vxc...
<Band>  Solving the eigenvalue problem...
 KGrids1:  -0.43750  -0.31250  -0.18750  -0.06250   0.06250   0.18750   0.31250   0.43750 
 KGrids2:  -0.43750  -0.31250  -0.18750  -0.06250   0.06250   0.18750   0.31250   0.43750 
 KGrids3:   0.00000 
<Band_DFT>  Eigen, time=14.147072
<Band_DFT>  DM, time=0.000000
    1    C  MulP   1.9997  1.9997 sum   3.9993
    2    C  MulP   1.9994  1.9994 sum   3.9988
    3    C  MulP   2.0000  2.0000 sum   4.0001
    4    C  MulP   1.9994  1.9994 sum   3.9987
    5    C  MulP   1.9996  1.9996 sum   3.9991
    6    C  MulP   1.9994  1.9994 sum   3.9989
    7    C  MulP   1.9996  1.9996 sum   3.9992
    8    C  MulP   1.9995  1.9995 sum   3.9989
    9    C  MulP   1.9997  1.9997 sum   3.9994
   10    C  MulP   1.9996  1.9996 sum   3.9992
   11    C  MulP   2.0002  2.0002 sum   4.0003
   12    C  MulP   1.9999  1.9999 sum   3.9999
   13    C  MulP   1.9995  1.9995 sum   3.9990
   14    C  MulP   1.9995  1.9995 sum   3.9990
   15    C  MulP   1.9996  1.9996 sum   3.9992
   16    C  MulP   1.9996  1.9996 sum   3.9992
   17    C  MulP   1.9996  1.9996 sum   3.9991
   18    C  MulP   1.9994  1.9994 sum   3.9988
   19    C  MulP   2.0003  2.0003 sum   4.0005
   20    C  MulP   2.0016  2.0016 sum   4.0033
     ..........
     ......

 Sum of MulP: up   =   267.50000 down          =   267.50000
              total=   535.00000 ideal(neutral)=   535.00000
<DFT>  Total Spin Moment (muB) =  0.000000000000
<DFT>  Mixing_weight= 0.030000000000
<DFT>  Uele   = -258.327490712466  dUele     =   2.003294777869
<DFT>  NormRD =    0.011958795097  Criterion =   0.000000010000

******************* MD= 1  SCF=17 *******************
<Poisson>  Poisson's equation using FFT...
<Set_Hamiltonian>  Hamiltonian matrix for VNA+dVH+Vxc...
<Band>  Solving the eigenvalue problem...
 KGrids1:  -0.43750  -0.31250  -0.18750  -0.06250   0.06250   0.18750   0.31250   0.43750 
 KGrids2:  -0.43750  -0.31250  -0.18750  -0.06250   0.06250   0.18750   0.31250   0.43750 
 KGrids3:   0.00000 
<Band_DFT>  Eigen, time=14.163086
<Band_DFT>  DM, time=0.000001
    1    C  MulP   1.9996  1.9996 sum   3.9993
    2    C  MulP   1.9995  1.9995 sum   3.9989
    3    C  MulP   2.0002  2.0002 sum   4.0003
    4    C  MulP   1.9994  1.9994 sum   3.9989
    5    C  MulP   1.9997  1.9997 sum   3.9993
    6    C  MulP   1.9994  1.9994 sum   3.9989
    7    C  MulP   1.9995  1.9995 sum   3.9991
    8    C  MulP   1.9994  1.9994 sum   3.9989
    9    C  MulP   1.9997  1.9997 sum   3.9993
   10    C  MulP   1.9996  1.9996 sum   3.9992
   11    C  MulP   2.0002  2.0002 sum   4.0004
   12    C  MulP   2.0001  2.0001 sum   4.0003
   13    C  MulP   1.9996  1.9996 sum   3.9993
   14    C  MulP   1.9996  1.9996 sum   3.9991
   15    C  MulP   1.9996  1.9996 sum   3.9993
   16    C  MulP   1.9995  1.9995 sum   3.9991
   17    C  MulP   1.9995  1.9995 sum   3.9991
   18    C  MulP   1.9993  1.9993 sum   3.9985
   19    C  MulP   2.0002  2.0002 sum   4.0004
   20    C  MulP   2.0017  2.0017 sum   4.0034
     ..........
     ......

 Sum of MulP: up   =   267.50000 down          =   267.50000
              total=   535.00000 ideal(neutral)=   535.00000
<DFT>  Total Spin Moment (muB) =  0.000000000000
<DFT>  Mixing_weight= 0.030000000000
<DFT>  Uele   = -258.494912426071  dUele     =   0.167421713604
<DFT>  NormRD =    0.006789072862  Criterion =   0.000000010000

******************* MD= 1  SCF=18 *******************
<Poisson>  Poisson's equation using FFT...
<Set_Hamiltonian>  Hamiltonian matrix for VNA+dVH+Vxc...
<Band>  Solving the eigenvalue problem...
 KGrids1:  -0.43750  -0.31250  -0.18750  -0.06250   0.06250   0.18750   0.31250   0.43750 
 KGrids2:  -0.43750  -0.31250  -0.18750  -0.06250   0.06250   0.18750   0.31250   0.43750 
 KGrids3:   0.00000 
<Band_DFT>  Eigen, time=14.153648
<Band_DFT>  DM, time=0.000001
    1    C  MulP   1.9997  1.9997 sum   3.9993
    2    C  MulP   1.9994  1.9994 sum   3.9987
    3    C  MulP   1.9999  1.9999 sum   3.9998
    4    C  MulP   1.9993  1.9993 sum   3.9986
    5    C  MulP   1.9994  1.9994 sum   3.9989
    6    C  MulP   1.9994  1.9994 sum   3.9989
    7    C  MulP   1.9996  1.9996 sum   3.9992
    8    C  MulP   1.9994  1.9994 sum   3.9989
    9    C  MulP   1.9997  1.9997 sum   3.9995
   10    C  MulP   1.9996  1.9996 sum   3.9991
   11    C  MulP   2.0002  2.0002 sum   4.0003
   12    C  MulP   1.9997  1.9997 sum   3.9994
   13    C  MulP   1.9994  1.9994 sum   3.9987
   14    C  MulP   1.9994  1.9994 sum   3.9988
   15    C  MulP   1.9995  1.9995 sum   3.9990
   16    C  MulP   1.9996  1.9996 sum   3.9992
   17    C  MulP   1.9996  1.9996 sum   3.9992
   18    C  MulP   1.9995  1.9995 sum   3.9991
   19    C  MulP   2.0004  2.0004 sum   4.0007
   20    C  MulP   2.0016  2.0016 sum   4.0033
     ..........
     ......

 Sum of MulP: up   =   267.50000 down          =   267.50000
              total=   535.00000 ideal(neutral)=   535.00000
<DFT>  Total Spin Moment (muB) =  0.000000000000
<DFT>  Mixing_weight= 0.030000000000
<DFT>  Uele   = -258.561006044175  dUele     =   0.066093618104
<DFT>  NormRD =    0.010394841948  Criterion =   0.000000010000

******************* MD= 1  SCF=19 *******************
<Poisson>  Poisson's equation using FFT...
<Set_Hamiltonian>  Hamiltonian matrix for VNA+dVH+Vxc...
<Band>  Solving the eigenvalue problem...
 KGrids1:  -0.43750  -0.31250  -0.18750  -0.06250   0.06250   0.18750   0.31250   0.43750 
 KGrids2:  -0.43750  -0.31250  -0.18750  -0.06250   0.06250   0.18750   0.31250   0.43750 
 KGrids3:   0.00000 
<Band_DFT>  Eigen, time=14.140649
<Band_DFT>  DM, time=0.000001
    1    C  MulP   1.9997  1.9997 sum   3.9993
    2    C  MulP   1.9994  1.9994 sum   3.9989
    3    C  MulP   2.0001  2.0001 sum   4.0002
    4    C  MulP   1.9994  1.9994 sum   3.9988
    5    C  MulP   1.9996  1.9996 sum   3.9992
    6    C  MulP   1.9995  1.9995 sum   3.9989
    7    C  MulP   1.9996  1.9996 sum   3.9992
    8    C  MulP   1.9995  1.9995 sum   3.9989
    9    C  MulP   1.9997  1.9997 sum   3.9994
   10    C  MulP   1.9996  1.9996 sum   3.9992
   11    C  MulP   2.0002  2.0002 sum   4.0003
   12    C  MulP   2.0000  2.0000 sum   4.0000
   13    C  MulP   1.9996  1.9996 sum   3.9991
   14    C  MulP   1.9995  1.9995 sum   3.9991
   15    C  MulP   1.9996  1.9996 sum   3.9993
   16    C  MulP   1.9996  1.9996 sum   3.9992
   17    C  MulP   1.9996  1.9996 sum   3.9992
   18    C  MulP   1.9993  1.9993 sum   3.9987
   19    C  MulP   2.0002  2.0002 sum   4.0005
   20    C  MulP   2.0016  2.0016 sum   4.0032
     ..........
     ......

 Sum of MulP: up   =   267.50000 down          =   267.50000
              total=   535.00000 ideal(neutral)=   535.00000
<DFT>  Total Spin Moment (muB) =  0.000000000000
<DFT>  Mixing_weight= 0.030000000000
<DFT>  Uele   = -258.607490059418  dUele     =   0.046484015244
<DFT>  NormRD =    0.002414069163  Criterion =   0.000000010000

******************* MD= 1  SCF=20 *******************
<Poisson>  Poisson's equation using FFT...
<Set_Hamiltonian>  Hamiltonian matrix for VNA+dVH+Vxc...
<Band>  Solving the eigenvalue problem...
 KGrids1:  -0.43750  -0.31250  -0.18750  -0.06250   0.06250   0.18750   0.31250   0.43750 
 KGrids2:  -0.43750  -0.31250  -0.18750  -0.06250   0.06250   0.18750   0.31250   0.43750 
 KGrids3:   0.00000 
<Band_DFT>  Eigen, time=14.142285
<Band_DFT>  DM, time=0.000000
    1    C  MulP   1.9996  1.9996 sum   3.9993
    2    C  MulP   1.9994  1.9994 sum   3.9988
    3    C  MulP   2.0001  2.0001 sum   4.0002
    4    C  MulP   1.9994  1.9994 sum   3.9988
    5    C  MulP   1.9996  1.9996 sum   3.9992
    6    C  MulP   1.9994  1.9994 sum   3.9989
    7    C  MulP   1.9996  1.9996 sum   3.9991
    8    C  MulP   1.9994  1.9994 sum   3.9989
    9    C  MulP   1.9997  1.9997 sum   3.9993
   10    C  MulP   1.9996  1.9996 sum   3.9991
   11    C  MulP   2.0002  2.0002 sum   4.0004
   12    C  MulP   2.0000  2.0000 sum   4.0000
   13    C  MulP   1.9995  1.9995 sum   3.9991
   14    C  MulP   1.9995  1.9995 sum   3.9990
   15    C  MulP   1.9996  1.9996 sum   3.9992
   16    C  MulP   1.9996  1.9996 sum   3.9991
   17    C  MulP   1.9996  1.9996 sum   3.9991
   18    C  MulP   1.9993  1.9993 sum   3.9987
   19    C  MulP   2.0003  2.0003 sum   4.0005
   20    C  MulP   2.0017  2.0017 sum   4.0035
     ..........
     ......

 Sum of MulP: up   =   267.50000 down          =   267.50000
              total=   535.00000 ideal(neutral)=   535.00000
<DFT>  Total Spin Moment (muB) =  0.000000000000
<DFT>  Mixing_weight= 0.030000000000
<DFT>  Uele   = -258.623086353039  dUele     =   0.015596293620
<DFT>  NormRD =    0.001167036400  Criterion =   0.000000010000

******************* MD= 1  SCF=21 *******************
<Poisson>  Poisson's equation using FFT...
<Set_Hamiltonian>  Hamiltonian matrix for VNA+dVH+Vxc...
<Band>  Solving the eigenvalue problem...
 KGrids1:  -0.43750  -0.31250  -0.18750  -0.06250   0.06250   0.18750   0.31250   0.43750 
 KGrids2:  -0.43750  -0.31250  -0.18750  -0.06250   0.06250   0.18750   0.31250   0.43750 
 KGrids3:   0.00000 
<Band_DFT>  Eigen, time=14.150025
<Band_DFT>  DM, time=0.000000
    1    C  MulP   1.9997  1.9997 sum   3.9993
    2    C  MulP   1.9994  1.9994 sum   3.9989
    3    C  MulP   2.0001  2.0001 sum   4.0001
    4    C  MulP   1.9994  1.9994 sum   3.9988
    5    C  MulP   1.9996  1.9996 sum   3.9992
    6    C  MulP   1.9994  1.9994 sum   3.9989
    7    C  MulP   1.9996  1.9996 sum   3.9992
    8    C  MulP   1.9995  1.9995 sum   3.9989
    9    C  MulP   1.9997  1.9997 sum   3.9994
   10    C  MulP   1.9996  1.9996 sum   3.9992
   11    C  MulP   2.0002  2.0002 sum   4.0003
   12    C  MulP   1.9999  1.9999 sum   3.9999
   13    C  MulP   1.9995  1.9995 sum   3.9991
   14    C  MulP   1.9995  1.9995 sum   3.9990
   15    C  MulP   1.9996  1.9996 sum   3.9992
   16    C  MulP   1.9996  1.9996 sum   3.9992
   17    C  MulP   1.9996  1.9996 sum   3.9991
   18    C  MulP   1.9994  1.9994 sum   3.9987
   19    C  MulP   2.0003  2.0003 sum   4.0005
   20    C  MulP   2.0016  2.0016 sum   4.0032
     ..........
     ......

 Sum of MulP: up   =   267.50000 down          =   267.50000
              total=   535.00000 ideal(neutral)=   535.00000
<DFT>  Total Spin Moment (muB) =  0.000000000000
<DFT>  Mixing_weight= 0.030000000000
<DFT>  Uele   = -258.634517203425  dUele     =   0.011430850386
<DFT>  NormRD =    0.000926338785  Criterion =   0.000000010000

******************* MD= 1  SCF=22 *******************
<Poisson>  Poisson's equation using FFT...
<Set_Hamiltonian>  Hamiltonian matrix for VNA+dVH+Vxc...
<Band>  Solving the eigenvalue problem...
 KGrids1:  -0.43750  -0.31250  -0.18750  -0.06250   0.06250   0.18750   0.31250   0.43750 
 KGrids2:  -0.43750  -0.31250  -0.18750  -0.06250   0.06250   0.18750   0.31250   0.43750 
 KGrids3:   0.00000 
<Band_DFT>  Eigen, time=14.156465
<Band_DFT>  DM, time=0.000000
    1    C  MulP   1.9997  1.9997 sum   3.9993
    2    C  MulP   1.9994  1.9994 sum   3.9989
    3    C  MulP   2.0001  2.0001 sum   4.0002
    4    C  MulP   1.9994  1.9994 sum   3.9988
    5    C  MulP   1.9996  1.9996 sum   3.9992
    6    C  MulP   1.9994  1.9994 sum   3.9989
    7    C  MulP   1.9996  1.9996 sum   3.9991
    8    C  MulP   1.9994  1.9994 sum   3.9989
    9    C  MulP   1.9997  1.9997 sum   3.9994
   10    C  MulP   1.9996  1.9996 sum   3.9992
   11    C  MulP   2.0002  2.0002 sum   4.0004
   12    C  MulP   2.0000  2.0000 sum   4.0000
   13    C  MulP   1.9995  1.9995 sum   3.9991
   14    C  MulP   1.9995  1.9995 sum   3.9990
   15    C  MulP   1.9996  1.9996 sum   3.9992
   16    C  MulP   1.9996  1.9996 sum   3.9992
   17    C  MulP   1.9996  1.9996 sum   3.9991
   18    C  MulP   1.9994  1.9994 sum   3.9987
   19    C  MulP   2.0003  2.0003 sum   4.0005
   20    C  MulP   2.0017  2.0017 sum   4.0033
     ..........
     ......

 Sum of MulP: up   =   267.50000 down          =   267.50000
              total=   535.00000 ideal(neutral)=   535.00000
<DFT>  Total Spin Moment (muB) =  0.000000000000
<DFT>  Mixing_weight= 0.030000000000
<DFT>  Uele   = -258.645358752059  dUele     =   0.010841548634
<DFT>  NormRD =    0.000331796388  Criterion =   0.000000010000

******************* MD= 1  SCF=23 *******************
<Poisson>  Poisson's equation using FFT...
<Set_Hamiltonian>  Hamiltonian matrix for VNA+dVH+Vxc...
<Band>  Solving the eigenvalue problem...
 KGrids1:  -0.43750  -0.31250  -0.18750  -0.06250   0.06250   0.18750   0.31250   0.43750 
 KGrids2:  -0.43750  -0.31250  -0.18750  -0.06250   0.06250   0.18750   0.31250   0.43750 
 KGrids3:   0.00000 
<Band_DFT>  Eigen, time=14.177495
<Band_DFT>  DM, time=0.000000
    1    C  MulP   1.9996  1.9996 sum   3.9993
    2    C  MulP   1.9994  1.9994 sum   3.9989
    3    C  MulP   2.0001  2.0001 sum   4.0001
    4    C  MulP   1.9994  1.9994 sum   3.9988
    5    C  MulP   1.9996  1.9996 sum   3.9992
    6    C  MulP   1.9994  1.9994 sum   3.9989
    7    C  MulP   1.9996  1.9996 sum   3.9991
    8    C  MulP   1.9994  1.9994 sum   3.9989
    9    C  MulP   1.9997  1.9997 sum   3.9994
   10    C  MulP   1.9996  1.9996 sum   3.9992
   11    C  MulP   2.0002  2.0002 sum   4.0003
   12    C  MulP   2.0000  2.0000 sum   3.9999
   13    C  MulP   1.9995  1.9995 sum   3.9991
   14    C  MulP   1.9995  1.9995 sum   3.9990
   15    C  MulP   1.9996  1.9996 sum   3.9992
   16    C  MulP   1.9996  1.9996 sum   3.9992
   17    C  MulP   1.9996  1.9996 sum   3.9991
   18    C  MulP   1.9994  1.9994 sum   3.9987
   19    C  MulP   2.0003  2.0003 sum   4.0005
   20    C  MulP   2.0017  2.0017 sum   4.0033
     ..........
     ......

 Sum of MulP: up   =   267.50000 down          =   267.50000
              total=   535.00000 ideal(neutral)=   535.00000
<DFT>  Total Spin Moment (muB) =  0.000000000000
<DFT>  Mixing_weight= 0.030000000000
<DFT>  Uele   = -258.648062409464  dUele     =   0.002703657405
<DFT>  NormRD =    0.000128832742  Criterion =   0.000000010000

******************* MD= 1  SCF=24 *******************
<Poisson>  Poisson's equation using FFT...
<Set_Hamiltonian>  Hamiltonian matrix for VNA+dVH+Vxc...
<Band>  Solving the eigenvalue problem...
 KGrids1:  -0.43750  -0.31250  -0.18750  -0.06250   0.06250   0.18750   0.31250   0.43750 
 KGrids2:  -0.43750  -0.31250  -0.18750  -0.06250   0.06250   0.18750   0.31250   0.43750 
 KGrids3:   0.00000 
<Band_DFT>  Eigen, time=14.158442
<Band_DFT>  DM, time=0.000000
    1    C  MulP   1.9997  1.9997 sum   3.9993
    2    C  MulP   1.9994  1.9994 sum   3.9989
    3    C  MulP   2.0001  2.0001 sum   4.0001
    4    C  MulP   1.9994  1.9994 sum   3.9988
    5    C  MulP   1.9996  1.9996 sum   3.9992
    6    C  MulP   1.9994  1.9994 sum   3.9989
    7    C  MulP   1.9996  1.9996 sum   3.9991
    8    C  MulP   1.9994  1.9994 sum   3.9989
    9    C  MulP   1.9997  1.9997 sum   3.9994
   10    C  MulP   1.9996  1.9996 sum   3.9992
   11    C  MulP   2.0002  2.0002 sum   4.0003
   12    C  MulP   2.0000  2.0000 sum   3.9999
   13    C  MulP   1.9995  1.9995 sum   3.9991
   14    C  MulP   1.9995  1.9995 sum   3.9990
   15    C  MulP   1.9996  1.9996 sum   3.9992
   16    C  MulP   1.9996  1.9996 sum   3.9992
   17    C  MulP   1.9996  1.9996 sum   3.9991
   18    C  MulP   1.9994  1.9994 sum   3.9987
   19    C  MulP   2.0003  2.0003 sum   4.0005
   20    C  MulP   2.0017  2.0017 sum   4.0033
     ..........
     ......

 Sum of MulP: up   =   267.50000 down          =   267.50000
              total=   535.00000 ideal(neutral)=   535.00000
<DFT>  Total Spin Moment (muB) =  0.000000000000
<DFT>  Mixing_weight= 0.030000000000
<DFT>  Uele   = -258.650098137091  dUele     =   0.002035727627
<DFT>  NormRD =    0.000076464620  Criterion =   0.000000010000

******************* MD= 1  SCF=25 *******************
<Poisson>  Poisson's equation using FFT...
<Set_Hamiltonian>  Hamiltonian matrix for VNA+dVH+Vxc...
<Band>  Solving the eigenvalue problem...
 KGrids1:  -0.43750  -0.31250  -0.18750  -0.06250   0.06250   0.18750   0.31250   0.43750 
 KGrids2:  -0.43750  -0.31250  -0.18750  -0.06250   0.06250   0.18750   0.31250   0.43750 
 KGrids3:   0.00000 
<Band_DFT>  Eigen, time=14.155445
<Band_DFT>  DM, time=0.000000
    1    C  MulP   1.9997  1.9997 sum   3.9993
    2    C  MulP   1.9994  1.9994 sum   3.9989
    3    C  MulP   2.0001  2.0001 sum   4.0001
    4    C  MulP   1.9994  1.9994 sum   3.9988
    5    C  MulP   1.9996  1.9996 sum   3.9992
    6    C  MulP   1.9994  1.9994 sum   3.9989
    7    C  MulP   1.9996  1.9996 sum   3.9991
    8    C  MulP   1.9994  1.9994 sum   3.9989
    9    C  MulP   1.9997  1.9997 sum   3.9994
   10    C  MulP   1.9996  1.9996 sum   3.9992
   11    C  MulP   2.0002  2.0002 sum   4.0003
   12    C  MulP   2.0000  2.0000 sum   3.9999
   13    C  MulP   1.9995  1.9995 sum   3.9991
   14    C  MulP   1.9995  1.9995 sum   3.9990
   15    C  MulP   1.9996  1.9996 sum   3.9992
   16    C  MulP   1.9996  1.9996 sum   3.9992
   17    C  MulP   1.9996  1.9996 sum   3.9991
   18    C  MulP   1.9994  1.9994 sum   3.9987
   19    C  MulP   2.0003  2.0003 sum   4.0005
   20    C  MulP   2.0017  2.0017 sum   4.0033
     ..........
     ......

 Sum of MulP: up   =   267.50000 down          =   267.50000
              total=   535.00000 ideal(neutral)=   535.00000
<DFT>  Total Spin Moment (muB) =  0.000000000000
<DFT>  Mixing_weight= 0.030000000000
<DFT>  Uele   = -258.650880895512  dUele     =   0.000782758421
<DFT>  NormRD =    0.000035286306  Criterion =   0.000000010000

******************* MD= 1  SCF=26 *******************
<Poisson>  Poisson's equation using FFT...
<Set_Hamiltonian>  Hamiltonian matrix for VNA+dVH+Vxc...
<Band>  Solving the eigenvalue problem...
 KGrids1:  -0.43750  -0.31250  -0.18750  -0.06250   0.06250   0.18750   0.31250   0.43750 
 KGrids2:  -0.43750  -0.31250  -0.18750  -0.06250   0.06250   0.18750   0.31250   0.43750 
 KGrids3:   0.00000 
<Band_DFT>  Eigen, time=14.152771
<Band_DFT>  DM, time=0.000001
    1    C  MulP   1.9997  1.9997 sum   3.9993
    2    C  MulP   1.9994  1.9994 sum   3.9989
    3    C  MulP   2.0001  2.0001 sum   4.0001
    4    C  MulP   1.9994  1.9994 sum   3.9988
    5    C  MulP   1.9996  1.9996 sum   3.9992
    6    C  MulP   1.9994  1.9994 sum   3.9989
    7    C  MulP   1.9996  1.9996 sum   3.9991
    8    C  MulP   1.9994  1.9994 sum   3.9989
    9    C  MulP   1.9997  1.9997 sum   3.9994
   10    C  MulP   1.9996  1.9996 sum   3.9992
   11    C  MulP   2.0002  2.0002 sum   4.0003
   12    C  MulP   2.0000  2.0000 sum   3.9999
   13    C  MulP   1.9995  1.9995 sum   3.9991
   14    C  MulP   1.9995  1.9995 sum   3.9990
   15    C  MulP   1.9996  1.9996 sum   3.9992
   16    C  MulP   1.9996  1.9996 sum   3.9992
   17    C  MulP   1.9996  1.9996 sum   3.9991
   18    C  MulP   1.9994  1.9994 sum   3.9987
   19    C  MulP   2.0003  2.0003 sum   4.0005
   20    C  MulP   2.0017  2.0017 sum   4.0033
     ..........
     ......

 Sum of MulP: up   =   267.50000 down          =   267.50000
              total=   535.00000 ideal(neutral)=   535.00000
<DFT>  Total Spin Moment (muB) =  0.000000000000
<DFT>  Mixing_weight= 0.030000000000
<DFT>  Uele   = -258.651363323744  dUele     =   0.000482428232
<DFT>  NormRD =    0.000012867504  Criterion =   0.000000010000

******************* MD= 1  SCF=27 *******************
<Poisson>  Poisson's equation using FFT...
<Set_Hamiltonian>  Hamiltonian matrix for VNA+dVH+Vxc...
<Band>  Solving the eigenvalue problem...
 KGrids1:  -0.43750  -0.31250  -0.18750  -0.06250   0.06250   0.18750   0.31250   0.43750 
 KGrids2:  -0.43750  -0.31250  -0.18750  -0.06250   0.06250   0.18750   0.31250   0.43750 
 KGrids3:   0.00000 
<Band_DFT>  Eigen, time=14.132578
<Band_DFT>  DM, time=0.000000
    1    C  MulP   1.9997  1.9997 sum   3.9993
    2    C  MulP   1.9994  1.9994 sum   3.9989
    3    C  MulP   2.0001  2.0001 sum   4.0001
    4    C  MulP   1.9994  1.9994 sum   3.9988
    5    C  MulP   1.9996  1.9996 sum   3.9992
    6    C  MulP   1.9994  1.9994 sum   3.9989
    7    C  MulP   1.9996  1.9996 sum   3.9991
    8    C  MulP   1.9994  1.9994 sum   3.9989
    9    C  MulP   1.9997  1.9997 sum   3.9994
   10    C  MulP   1.9996  1.9996 sum   3.9992
   11    C  MulP   2.0002  2.0002 sum   4.0003
   12    C  MulP   2.0000  2.0000 sum   3.9999
   13    C  MulP   1.9995  1.9995 sum   3.9991
   14    C  MulP   1.9995  1.9995 sum   3.9990
   15    C  MulP   1.9996  1.9996 sum   3.9992
   16    C  MulP   1.9996  1.9996 sum   3.9992
   17    C  MulP   1.9996  1.9996 sum   3.9991
   18    C  MulP   1.9994  1.9994 sum   3.9987
   19    C  MulP   2.0003  2.0003 sum   4.0005
   20    C  MulP   2.0017  2.0017 sum   4.0033
     ..........
     ......

 Sum of MulP: up   =   267.50000 down          =   267.50000
              total=   535.00000 ideal(neutral)=   535.00000
<DFT>  Total Spin Moment (muB) =  0.000000000000
<DFT>  Mixing_weight= 0.030000000000
<DFT>  Uele   = -258.651687719588  dUele     =   0.000324395844
<DFT>  NormRD =    0.000007403758  Criterion =   0.000000010000

******************* MD= 1  SCF=28 *******************
<Poisson>  Poisson's equation using FFT...
<Set_Hamiltonian>  Hamiltonian matrix for VNA+dVH+Vxc...
<Band>  Solving the eigenvalue problem...
 KGrids1:  -0.43750  -0.31250  -0.18750  -0.06250   0.06250   0.18750   0.31250   0.43750 
 KGrids2:  -0.43750  -0.31250  -0.18750  -0.06250   0.06250   0.18750   0.31250   0.43750 
 KGrids3:   0.00000 
<Band_DFT>  Eigen, time=14.144527
<Band_DFT>  DM, time=0.000000
    1    C  MulP   1.9997  1.9997 sum   3.9993
    2    C  MulP   1.9994  1.9994 sum   3.9989
    3    C  MulP   2.0001  2.0001 sum   4.0001
    4    C  MulP   1.9994  1.9994 sum   3.9988
    5    C  MulP   1.9996  1.9996 sum   3.9992
    6    C  MulP   1.9994  1.9994 sum   3.9989
    7    C  MulP   1.9996  1.9996 sum   3.9991
    8    C  MulP   1.9994  1.9994 sum   3.9989
    9    C  MulP   1.9997  1.9997 sum   3.9994
   10    C  MulP   1.9996  1.9996 sum   3.9992
   11    C  MulP   2.0002  2.0002 sum   4.0003
   12    C  MulP   2.0000  2.0000 sum   3.9999
   13    C  MulP   1.9995  1.9995 sum   3.9991
   14    C  MulP   1.9995  1.9995 sum   3.9990
   15    C  MulP   1.9996  1.9996 sum   3.9992
   16    C  MulP   1.9996  1.9996 sum   3.9992
   17    C  MulP   1.9996  1.9996 sum   3.9991
   18    C  MulP   1.9994  1.9994 sum   3.9987
   19    C  MulP   2.0003  2.0003 sum   4.0005
   20    C  MulP   2.0017  2.0017 sum   4.0033
     ..........
     ......

 Sum of MulP: up   =   267.50000 down          =   267.50000
              total=   535.00000 ideal(neutral)=   535.00000
<DFT>  Total Spin Moment (muB) =  0.000000000000
<DFT>  Mixing_weight= 0.030000000000
<DFT>  Uele   = -258.651849021558  dUele     =   0.000161301970
<DFT>  NormRD =    0.000003719399  Criterion =   0.000000010000

******************* MD= 1  SCF=29 *******************
<Poisson>  Poisson's equation using FFT...
<Set_Hamiltonian>  Hamiltonian matrix for VNA+dVH+Vxc...
<Band>  Solving the eigenvalue problem...
 KGrids1:  -0.43750  -0.31250  -0.18750  -0.06250   0.06250   0.18750   0.31250   0.43750 
 KGrids2:  -0.43750  -0.31250  -0.18750  -0.06250   0.06250   0.18750   0.31250   0.43750 
 KGrids3:   0.00000 
<Band_DFT>  Eigen, time=14.138313
<Band_DFT>  DM, time=0.000000
    1    C  MulP   1.9997  1.9997 sum   3.9993
    2    C  MulP   1.9994  1.9994 sum   3.9989
    3    C  MulP   2.0001  2.0001 sum   4.0001
    4    C  MulP   1.9994  1.9994 sum   3.9988
    5    C  MulP   1.9996  1.9996 sum   3.9992
    6    C  MulP   1.9994  1.9994 sum   3.9989
    7    C  MulP   1.9996  1.9996 sum   3.9991
    8    C  MulP   1.9994  1.9994 sum   3.9989
    9    C  MulP   1.9997  1.9997 sum   3.9994
   10    C  MulP   1.9996  1.9996 sum   3.9992
   11    C  MulP   2.0002  2.0002 sum   4.0003
   12    C  MulP   2.0000  2.0000 sum   3.9999
   13    C  MulP   1.9995  1.9995 sum   3.9991
   14    C  MulP   1.9995  1.9995 sum   3.9990
   15    C  MulP   1.9996  1.9996 sum   3.9992
   16    C  MulP   1.9996  1.9996 sum   3.9992
   17    C  MulP   1.9996  1.9996 sum   3.9991
   18    C  MulP   1.9994  1.9994 sum   3.9987
   19    C  MulP   2.0003  2.0003 sum   4.0005
   20    C  MulP   2.0017  2.0017 sum   4.0033
     ..........
     ......

 Sum of MulP: up   =   267.50000 down          =   267.50000
              total=   535.00000 ideal(neutral)=   535.00000
<DFT>  Total Spin Moment (muB) =  0.000000000000
<DFT>  Mixing_weight= 0.030000000000
<DFT>  Uele   = -258.651914865397  dUele     =   0.000065843839
<DFT>  NormRD =    0.000002087266  Criterion =   0.000000010000

******************* MD= 1  SCF=30 *******************
<Poisson>  Poisson's equation using FFT...
<Set_Hamiltonian>  Hamiltonian matrix for VNA+dVH+Vxc...
<Band>  Solving the eigenvalue problem...
 KGrids1:  -0.43750  -0.31250  -0.18750  -0.06250   0.06250   0.18750   0.31250   0.43750 
 KGrids2:  -0.43750  -0.31250  -0.18750  -0.06250   0.06250   0.18750   0.31250   0.43750 
 KGrids3:   0.00000 
<Band_DFT>  Eigen, time=14.157895
<Band_DFT>  DM, time=0.000000
    1    C  MulP   1.9997  1.9997 sum   3.9993
    2    C  MulP   1.9994  1.9994 sum   3.9989
    3    C  MulP   2.0001  2.0001 sum   4.0001
    4    C  MulP   1.9994  1.9994 sum   3.9988
    5    C  MulP   1.9996  1.9996 sum   3.9992
    6    C  MulP   1.9994  1.9994 sum   3.9989
    7    C  MulP   1.9996  1.9996 sum   3.9991
    8    C  MulP   1.9994  1.9994 sum   3.9989
    9    C  MulP   1.9997  1.9997 sum   3.9994
   10    C  MulP   1.9996  1.9996 sum   3.9992
   11    C  MulP   2.0002  2.0002 sum   4.0003
   12    C  MulP   2.0000  2.0000 sum   3.9999
   13    C  MulP   1.9995  1.9995 sum   3.9991
   14    C  MulP   1.9995  1.9995 sum   3.9990
   15    C  MulP   1.9996  1.9996 sum   3.9992
   16    C  MulP   1.9996  1.9996 sum   3.9992
   17    C  MulP   1.9996  1.9996 sum   3.9991
   18    C  MulP   1.9994  1.9994 sum   3.9987
   19    C  MulP   2.0003  2.0003 sum   4.0005
   20    C  MulP   2.0017  2.0017 sum   4.0033
     ..........
     ......

 Sum of MulP: up   =   267.50000 down          =   267.50000
              total=   535.00000 ideal(neutral)=   535.00000
<DFT>  Total Spin Moment (muB) =  0.000000000000
<DFT>  Mixing_weight= 0.030000000000
<DFT>  Uele   = -258.651987544779  dUele     =   0.000072679382
<DFT>  NormRD =    0.000001147050  Criterion =   0.000000010000

******************* MD= 1  SCF=31 *******************
<Poisson>  Poisson's equation using FFT...
<Set_Hamiltonian>  Hamiltonian matrix for VNA+dVH+Vxc...
<Band>  Solving the eigenvalue problem...
 KGrids1:  -0.43750  -0.31250  -0.18750  -0.06250   0.06250   0.18750   0.31250   0.43750 
 KGrids2:  -0.43750  -0.31250  -0.18750  -0.06250   0.06250   0.18750   0.31250   0.43750 
 KGrids3:   0.00000 
<Band_DFT>  Eigen, time=14.399976
<Band_DFT>  DM, time=0.000000
    1    C  MulP   1.9997  1.9997 sum   3.9993
    2    C  MulP   1.9994  1.9994 sum   3.9989
    3    C  MulP   2.0001  2.0001 sum   4.0001
    4    C  MulP   1.9994  1.9994 sum   3.9988
    5    C  MulP   1.9996  1.9996 sum   3.9992
    6    C  MulP   1.9994  1.9994 sum   3.9989
    7    C  MulP   1.9996  1.9996 sum   3.9991
    8    C  MulP   1.9994  1.9994 sum   3.9989
    9    C  MulP   1.9997  1.9997 sum   3.9994
   10    C  MulP   1.9996  1.9996 sum   3.9992
   11    C  MulP   2.0002  2.0002 sum   4.0003
   12    C  MulP   2.0000  2.0000 sum   3.9999
   13    C  MulP   1.9995  1.9995 sum   3.9991
   14    C  MulP   1.9995  1.9995 sum   3.9990
   15    C  MulP   1.9996  1.9996 sum   3.9992
   16    C  MulP   1.9996  1.9996 sum   3.9992
   17    C  MulP   1.9996  1.9996 sum   3.9991
   18    C  MulP   1.9994  1.9994 sum   3.9987
   19    C  MulP   2.0003  2.0003 sum   4.0005
   20    C  MulP   2.0017  2.0017 sum   4.0033
     ..........
     ......

 Sum of MulP: up   =   267.50000 down          =   267.50000
              total=   535.00000 ideal(neutral)=   535.00000
<DFT>  Total Spin Moment (muB) =  0.000000000000
<DFT>  Mixing_weight= 0.030000000000
<DFT>  Uele   = -258.652018925432  dUele     =   0.000031380653
<DFT>  NormRD =    0.000000569971  Criterion =   0.000000010000

******************* MD= 1  SCF=32 *******************
<Poisson>  Poisson's equation using FFT...
<Set_Hamiltonian>  Hamiltonian matrix for VNA+dVH+Vxc...
<Band>  Solving the eigenvalue problem...
 KGrids1:  -0.43750  -0.31250  -0.18750  -0.06250   0.06250   0.18750   0.31250   0.43750 
 KGrids2:  -0.43750  -0.31250  -0.18750  -0.06250   0.06250   0.18750   0.31250   0.43750 
 KGrids3:   0.00000 
<Band_DFT>  Eigen, time=14.168183
<Band_DFT>  DM, time=0.000000
    1    C  MulP   1.9997  1.9997 sum   3.9993
    2    C  MulP   1.9994  1.9994 sum   3.9989
    3    C  MulP   2.0001  2.0001 sum   4.0001
    4    C  MulP   1.9994  1.9994 sum   3.9988
    5    C  MulP   1.9996  1.9996 sum   3.9992
    6    C  MulP   1.9994  1.9994 sum   3.9989
    7    C  MulP   1.9996  1.9996 sum   3.9991
    8    C  MulP   1.9994  1.9994 sum   3.9989
    9    C  MulP   1.9997  1.9997 sum   3.9994
   10    C  MulP   1.9996  1.9996 sum   3.9992
   11    C  MulP   2.0002  2.0002 sum   4.0003
   12    C  MulP   2.0000  2.0000 sum   3.9999
   13    C  MulP   1.9995  1.9995 sum   3.9991
   14    C  MulP   1.9995  1.9995 sum   3.9990
   15    C  MulP   1.9996  1.9996 sum   3.9992
   16    C  MulP   1.9996  1.9996 sum   3.9992
   17    C  MulP   1.9996  1.9996 sum   3.9991
   18    C  MulP   1.9994  1.9994 sum   3.9987
   19    C  MulP   2.0003  2.0003 sum   4.0005
   20    C  MulP   2.0017  2.0017 sum   4.0033
     ..........
     ......

 Sum of MulP: up   =   267.50000 down          =   267.50000
              total=   535.00000 ideal(neutral)=   535.00000
<DFT>  Total Spin Moment (muB) =  0.000000000000
<DFT>  Mixing_weight= 0.030000000000
<DFT>  Uele   = -258.652037865141  dUele     =   0.000018939709
<DFT>  NormRD =    0.000000295084  Criterion =   0.000000010000

******************* MD= 1  SCF=33 *******************
<Poisson>  Poisson's equation using FFT...
<Set_Hamiltonian>  Hamiltonian matrix for VNA+dVH+Vxc...
<Band>  Solving the eigenvalue problem...
 KGrids1:  -0.43750  -0.31250  -0.18750  -0.06250   0.06250   0.18750   0.31250   0.43750 
 KGrids2:  -0.43750  -0.31250  -0.18750  -0.06250   0.06250   0.18750   0.31250   0.43750 
 KGrids3:   0.00000 
<Band_DFT>  Eigen, time=14.181141
<Band_DFT>  DM, time=0.000000
    1    C  MulP   1.9997  1.9997 sum   3.9993
    2    C  MulP   1.9994  1.9994 sum   3.9989
    3    C  MulP   2.0001  2.0001 sum   4.0001
    4    C  MulP   1.9994  1.9994 sum   3.9988
    5    C  MulP   1.9996  1.9996 sum   3.9992
    6    C  MulP   1.9994  1.9994 sum   3.9989
    7    C  MulP   1.9996  1.9996 sum   3.9991
    8    C  MulP   1.9994  1.9994 sum   3.9989
    9    C  MulP   1.9997  1.9997 sum   3.9994
   10    C  MulP   1.9996  1.9996 sum   3.9992
   11    C  MulP   2.0002  2.0002 sum   4.0003
   12    C  MulP   2.0000  2.0000 sum   3.9999
   13    C  MulP   1.9995  1.9995 sum   3.9991
   14    C  MulP   1.9995  1.9995 sum   3.9990
   15    C  MulP   1.9996  1.9996 sum   3.9992
   16    C  MulP   1.9996  1.9996 sum   3.9992
   17    C  MulP   1.9996  1.9996 sum   3.9991
   18    C  MulP   1.9994  1.9994 sum   3.9987
   19    C  MulP   2.0003  2.0003 sum   4.0005
   20    C  MulP   2.0017  2.0017 sum   4.0033
     ..........
     ......

 Sum of MulP: up   =   267.50000 down          =   267.50000
              total=   535.00000 ideal(neutral)=   535.00000
<DFT>  Total Spin Moment (muB) =  0.000000000000
<DFT>  Mixing_weight= 0.030000000000
<DFT>  Uele   = -258.652049985018  dUele     =   0.000012119877
<DFT>  NormRD =    0.000000126594  Criterion =   0.000000010000

******************* MD= 1  SCF=34 *******************
<Poisson>  Poisson's equation using FFT...
<Set_Hamiltonian>  Hamiltonian matrix for VNA+dVH+Vxc...
<Band>  Solving the eigenvalue problem...
 KGrids1:  -0.43750  -0.31250  -0.18750  -0.06250   0.06250   0.18750   0.31250   0.43750 
 KGrids2:  -0.43750  -0.31250  -0.18750  -0.06250   0.06250   0.18750   0.31250   0.43750 
 KGrids3:   0.00000 
<Band_DFT>  Eigen, time=14.254606
<Band_DFT>  DM, time=0.000000
    1    C  MulP   1.9997  1.9997 sum   3.9993
    2    C  MulP   1.9994  1.9994 sum   3.9989
    3    C  MulP   2.0001  2.0001 sum   4.0001
    4    C  MulP   1.9994  1.9994 sum   3.9988
    5    C  MulP   1.9996  1.9996 sum   3.9992
    6    C  MulP   1.9994  1.9994 sum   3.9989
    7    C  MulP   1.9996  1.9996 sum   3.9991
    8    C  MulP   1.9994  1.9994 sum   3.9989
    9    C  MulP   1.9997  1.9997 sum   3.9994
   10    C  MulP   1.9996  1.9996 sum   3.9992
   11    C  MulP   2.0002  2.0002 sum   4.0003
   12    C  MulP   2.0000  2.0000 sum   3.9999
   13    C  MulP   1.9995  1.9995 sum   3.9991
   14    C  MulP   1.9995  1.9995 sum   3.9990
   15    C  MulP   1.9996  1.9996 sum   3.9992
   16    C  MulP   1.9996  1.9996 sum   3.9992
   17    C  MulP   1.9996  1.9996 sum   3.9991
   18    C  MulP   1.9994  1.9994 sum   3.9987
   19    C  MulP   2.0003  2.0003 sum   4.0005
   20    C  MulP   2.0017  2.0017 sum   4.0033
     ..........
     ......

 Sum of MulP: up   =   267.50000 down          =   267.50000
              total=   535.00000 ideal(neutral)=   535.00000
<DFT>  Total Spin Moment (muB) =  0.000000000000
<DFT>  Mixing_weight= 0.030000000000
<DFT>  Uele   = -258.652056510721  dUele     =   0.000006525703
<DFT>  NormRD =    0.000000038509  Criterion =   0.000000010000

******************* MD= 1  SCF=35 *******************
<Poisson>  Poisson's equation using FFT...
<Set_Hamiltonian>  Hamiltonian matrix for VNA+dVH+Vxc...
<Band>  Solving the eigenvalue problem...
 KGrids1:  -0.43750  -0.31250  -0.18750  -0.06250   0.06250   0.18750   0.31250   0.43750 
 KGrids2:  -0.43750  -0.31250  -0.18750  -0.06250   0.06250   0.18750   0.31250   0.43750 
 KGrids3:   0.00000 
<Band_DFT>  Eigen, time=14.164688
<Band_DFT>  DM, time=0.000000
    1    C  MulP   1.9997  1.9997 sum   3.9993
    2    C  MulP   1.9994  1.9994 sum   3.9989
    3    C  MulP   2.0001  2.0001 sum   4.0001
    4    C  MulP   1.9994  1.9994 sum   3.9988
    5    C  MulP   1.9996  1.9996 sum   3.9992
    6    C  MulP   1.9994  1.9994 sum   3.9989
    7    C  MulP   1.9996  1.9996 sum   3.9991
    8    C  MulP   1.9994  1.9994 sum   3.9989
    9    C  MulP   1.9997  1.9997 sum   3.9994
   10    C  MulP   1.9996  1.9996 sum   3.9992
   11    C  MulP   2.0002  2.0002 sum   4.0003
   12    C  MulP   2.0000  2.0000 sum   3.9999
   13    C  MulP   1.9995  1.9995 sum   3.9991
   14    C  MulP   1.9995  1.9995 sum   3.9990
   15    C  MulP   1.9996  1.9996 sum   3.9992
   16    C  MulP   1.9996  1.9996 sum   3.9992
   17    C  MulP   1.9996  1.9996 sum   3.9991
   18    C  MulP   1.9994  1.9994 sum   3.9987
   19    C  MulP   2.0003  2.0003 sum   4.0005
   20    C  MulP   2.0017  2.0017 sum   4.0033
     ..........
     ......

 Sum of MulP: up   =   267.50000 down          =   267.50000
              total=   535.00000 ideal(neutral)=   535.00000
<DFT>  Total Spin Moment (muB) =  0.000000000000
<DFT>  Mixing_weight= 0.030000000000
<DFT>  Uele   = -258.652058431081  dUele     =   0.000001920360
<DFT>  NormRD =    0.000000014099  Criterion =   0.000000010000

******************* MD= 1  SCF=36 *******************
<Poisson>  Poisson's equation using FFT...
<Set_Hamiltonian>  Hamiltonian matrix for VNA+dVH+Vxc...
<Band>  Solving the eigenvalue problem...
 KGrids1:  -0.43750  -0.31250  -0.18750  -0.06250   0.06250   0.18750   0.31250   0.43750 
 KGrids2:  -0.43750  -0.31250  -0.18750  -0.06250   0.06250   0.18750   0.31250   0.43750 
 KGrids3:   0.00000 
<Band_DFT>  Eigen, time=14.141863
<Band_DFT>  DM, time=0.000000
    1    C  MulP   1.9997  1.9997 sum   3.9993
    2    C  MulP   1.9994  1.9994 sum   3.9989
    3    C  MulP   2.0001  2.0001 sum   4.0001
    4    C  MulP   1.9994  1.9994 sum   3.9988
    5    C  MulP   1.9996  1.9996 sum   3.9992
    6    C  MulP   1.9994  1.9994 sum   3.9989
    7    C  MulP   1.9996  1.9996 sum   3.9991
    8    C  MulP   1.9994  1.9994 sum   3.9989
    9    C  MulP   1.9997  1.9997 sum   3.9994
   10    C  MulP   1.9996  1.9996 sum   3.9992
   11    C  MulP   2.0002  2.0002 sum   4.0003
   12    C  MulP   2.0000  2.0000 sum   3.9999
   13    C  MulP   1.9995  1.9995 sum   3.9991
   14    C  MulP   1.9995  1.9995 sum   3.9990
   15    C  MulP   1.9996  1.9996 sum   3.9992
   16    C  MulP   1.9996  1.9996 sum   3.9992
   17    C  MulP   1.9996  1.9996 sum   3.9991
   18    C  MulP   1.9994  1.9994 sum   3.9987
   19    C  MulP   2.0003  2.0003 sum   4.0005
   20    C  MulP   2.0017  2.0017 sum   4.0033
     ..........
     ......

 Sum of MulP: up   =   267.50000 down          =   267.50000
              total=   535.00000 ideal(neutral)=   535.00000
<DFT>  Total Spin Moment (muB) =  0.000000000000
<DFT>  Mixing_weight= 0.030000000000
<DFT>  Uele   = -258.652058922610  dUele     =   0.000000491529
<DFT>  NormRD =    0.000000005281  Criterion =   0.000000010000

******************* MD= 1  SCF=37 *******************
<Poisson>  Poisson's equation using FFT...
<Set_Hamiltonian>  Hamiltonian matrix for VNA+dVH+Vxc...
<Band>  Solving the eigenvalue problem...
 KGrids1:  -0.43750  -0.31250  -0.18750  -0.06250   0.06250   0.18750   0.31250   0.43750 
 KGrids2:  -0.43750  -0.31250  -0.18750  -0.06250   0.06250   0.18750   0.31250   0.43750 
 KGrids3:   0.00000 
<Band_DFT>  Eigen, time=14.163733
<Band_DFT>  DM, time=0.000000
    1    C  MulP   1.9997  1.9997 sum   3.9993
    2    C  MulP   1.9994  1.9994 sum   3.9989
    3    C  MulP   2.0001  2.0001 sum   4.0001
    4    C  MulP   1.9994  1.9994 sum   3.9988
    5    C  MulP   1.9996  1.9996 sum   3.9992
    6    C  MulP   1.9994  1.9994 sum   3.9989
    7    C  MulP   1.9996  1.9996 sum   3.9991
    8    C  MulP   1.9994  1.9994 sum   3.9989
    9    C  MulP   1.9997  1.9997 sum   3.9994
   10    C  MulP   1.9996  1.9996 sum   3.9992
   11    C  MulP   2.0002  2.0002 sum   4.0003
   12    C  MulP   2.0000  2.0000 sum   3.9999
   13    C  MulP   1.9995  1.9995 sum   3.9991
   14    C  MulP   1.9995  1.9995 sum   3.9990
   15    C  MulP   1.9996  1.9996 sum   3.9992
   16    C  MulP   1.9996  1.9996 sum   3.9992
   17    C  MulP   1.9996  1.9996 sum   3.9991
   18    C  MulP   1.9994  1.9994 sum   3.9987
   19    C  MulP   2.0003  2.0003 sum   4.0005
   20    C  MulP   2.0017  2.0017 sum   4.0033
     ..........
     ......

 Sum of MulP: up   =   267.50000 down          =   267.50000
              total=   535.00000 ideal(neutral)=   535.00000
<DFT>  Total Spin Moment (muB) =  0.000000000000
<DFT>  Mixing_weight= 0.030000000000
<DFT>  Uele   = -258.652058963621  dUele     =   0.000000041011
<DFT>  NormRD =    0.000000001869  Criterion =   0.000000010000

******************* MD= 1  SCF=38 *******************
<Poisson>  Poisson's equation using FFT...
<Set_Hamiltonian>  Hamiltonian matrix for VNA+dVH+Vxc...
<Band>  Solving the eigenvalue problem...
 KGrids1:  -0.43750  -0.31250  -0.18750  -0.06250   0.06250   0.18750   0.31250   0.43750 
 KGrids2:  -0.43750  -0.31250  -0.18750  -0.06250   0.06250   0.18750   0.31250   0.43750 
 KGrids3:   0.00000 
<Band_DFT>  Eigen, time=14.149050
<Band_DFT>  DM, time=0.000000
    1    C  MulP   1.9997  1.9997 sum   3.9993
    2    C  MulP   1.9994  1.9994 sum   3.9989
    3    C  MulP   2.0001  2.0001 sum   4.0001
    4    C  MulP   1.9994  1.9994 sum   3.9988
    5    C  MulP   1.9996  1.9996 sum   3.9992
    6    C  MulP   1.9994  1.9994 sum   3.9989
    7    C  MulP   1.9996  1.9996 sum   3.9991
    8    C  MulP   1.9994  1.9994 sum   3.9989
    9    C  MulP   1.9997  1.9997 sum   3.9994
   10    C  MulP   1.9996  1.9996 sum   3.9992
   11    C  MulP   2.0002  2.0002 sum   4.0003
   12    C  MulP   2.0000  2.0000 sum   3.9999
   13    C  MulP   1.9995  1.9995 sum   3.9991
   14    C  MulP   1.9995  1.9995 sum   3.9990
[...]
<Band>  Solving the eigenvalue problem...
 KGrids1:  -0.43750  -0.31250  -0.18750  -0.06250   0.06250   0.18750   0.31250   0.43750 
 KGrids2:  -0.43750  -0.31250  -0.18750  -0.06250   0.06250   0.18750   0.31250   0.43750 
 KGrids3:   0.00000 
<Band_DFT>  Eigen, time=14.197483
<Band_DFT>  DM, time=0.000000
    1    C  MulP   1.9997  1.9997 sum   3.9993
    2    C  MulP   1.9995  1.9995 sum   3.9991
    3    C  MulP   2.0001  2.0001 sum   4.0002
    4    C  MulP   1.9995  1.9995 sum   3.9990
    5    C  MulP   1.9996  1.9996 sum   3.9992
    6    C  MulP   1.9995  1.9995 sum   3.9991
    7    C  MulP   1.9996  1.9996 sum   3.9991
    8    C  MulP   1.9995  1.9995 sum   3.9991
    9    C  MulP   1.9998  1.9998 sum   3.9995
   10    C  MulP   1.9996  1.9996 sum   3.9991
   11    C  MulP   2.0003  2.0003 sum   4.0005
   12    C  MulP   2.0000  2.0000 sum   4.0001
   13    C  MulP   1.9997  1.9997 sum   3.9993
   14    C  MulP   1.9995  1.9995 sum   3.9990
   15    C  MulP   1.9997  1.9997 sum   3.9994
   16    C  MulP   1.9996  1.9996 sum   3.9991
   17    C  MulP   1.9996  1.9996 sum   3.9991
   18    C  MulP   1.9994  1.9994 sum   3.9989
   19    C  MulP   1.9999  1.9999 sum   3.9999
   20    C  MulP   2.0018  2.0018 sum   4.0035
     ..........
     ......

 Sum of MulP: up   =   267.50000 down          =   267.50000
              total=   535.00000 ideal(neutral)=   535.00000
<DFT>  Total Spin Moment (muB) =  0.000000000000
<DFT>  Mixing_weight= 0.030000000000
<DFT>  Uele   = -258.350074444805  dUele     =   0.000000001946
<DFT>  NormRD =    0.000000019942  Criterion =   0.000000010000
<MD=66>  Force calculation
  Force calculation #1
  Force calculation #2
  Force calculation #3
  Force calculation #4
  Force calculation #5
<MD=66>  Total Energy
  Force calculation #6
  Force calculation #7

*******************************************************
                  Dipole moment (Debye)                 
*******************************************************

 Absolute D       51.12386516

                      Dx                Dy                Dz
 Total             44.77564567      -24.66810313       -0.52519702
 Core           12673.57262801    21976.24331073    27369.17831459
 Electron      -12628.79698235   -22000.91141386   -27369.70351162
 Back ground       -0.00000000       -0.00000000       -0.00000000

*******************************************************
                Total Energy (Hartree) at MD =66        
*******************************************************

  Uele  =    -258.350074444805

  Ukin  =     572.979773424177
  UH0   =   -7674.856571098853
  UH1   =       1.933764775039
  Una   =    -420.865040145740
  Unl   =     -59.397512480979
  Uxc0  =    -130.893712558109
  Uxc1  =    -130.893712558109
  Ucore =    7038.886677526649
  Uhub  =       0.000000000000
  Ucs   =       0.000000000000
  Uzs   =       0.000000000000
  Uzo   =       0.000000000000
  Uef   =       0.000000000000
  UvdW  =       0.000000000000
  Uch   =       0.000000000000
  Utot  =    -803.106333115926

  UpV   =       0.000000000000
  Enpy  =    -803.106333115926
  Note:

  Uele:   band energy
  Ukin:   kinetic energy
  UH0:    electric part of screened Coulomb energy
  UH1:    difference electron-electron Coulomb energy
  Una:    neutral atom potential energy
  Unl:    non-local potential energy
  Uxc0:   exchange-correlation energy for alpha spin
  Uxc1:   exchange-correlation energy for beta spin
  Ucore:  core-core Coulomb energy
  Uhub:   LDA+U energy
  Ucs:    constraint energy for spin orientation
  Uzs:    Zeeman term for spin magnetic moment
  Uzo:    Zeeman term for orbital magnetic moment
  Uef:    electric energy by electric field
  UvdW:   semi-empirical vdW energy 
  Uch:    penalty term to create a core hole
  UpV:    pressure times volume
  Enpy:   Enthalpy = Utot + UpV
  (see also PRB 72, 045121(2005) for the energy contributions)


*******************************************************
           Computational times (s) at MD =66            
*******************************************************

  DFT in total      =  261.75029

  Set_OLP_Kin       =    1.11239
  Set_Nonlocal      =    2.86779
  Set_ProExpn_VNA   =    4.70115
  Set_Hamiltonian   =   14.36217
  Poisson           =    0.17358
  diagonalization   =  224.84779
  Mixing_DM         =    1.53826
  Force             =    3.89667
  Total_Energy      =    1.25784
  Set_Aden_Grid     =    0.23008
  Set_Orbitals_Grid =    0.52169
  Set_Density_Grid  =    5.59464
  RestartFileDFT    =    0.30217
  Mulliken_Charge   =    0.01166
  FFT(2D)_Density   =    0.19240

The SCF was achieved at MD=  66

*******************************************************
             MD or geometry opt. at MD =66              
*******************************************************


The geometry optimization was achieved.
<RF>  |Maximum force| (Hartree/Bohr) = 0.000082313430
<RF>  Criterion       (Hartree/Bohr) = 0.000100000000

     atom=   1, XYZ(ang) Fxyz(a.u.)=   0.0259    1.4097   10.4056    -0.0000    0.0000   -0.0000
     atom=   2, XYZ(ang) Fxyz(a.u.)=  -1.2064    3.5480   10.4370    -0.0000    0.0000    0.0000
     atom=   3, XYZ(ang) Fxyz(a.u.)=  -2.4408    5.6843   10.4479    -0.0000    0.0000    0.0000
     atom=   4, XYZ(ang) Fxyz(a.u.)=  -3.6732    7.8217   10.4160    -0.0000    0.0000    0.0000
     atom=   5, XYZ(ang) Fxyz(a.u.)=  -4.9086    9.9579   10.3779    -0.0000    0.0000    0.0001
     atom=   6, XYZ(ang) Fxyz(a.u.)=  -6.1424   12.0939   10.3563    -0.0000    0.0000    0.0001
     atom=   7, XYZ(ang) Fxyz(a.u.)=  -7.3757   14.2310   10.3565    -0.0000    0.0000    0.0001
     atom=   8, XYZ(ang) Fxyz(a.u.)=  -8.6101   16.3675   10.3748    -0.0000    0.0000   -0.0000
     atom=   9, XYZ(ang) Fxyz(a.u.)=   2.4933    1.4096   10.3928    -0.0000   -0.0000    0.0000
     atom=  10, XYZ(ang) Fxyz(a.u.)=   1.2597    3.5468   10.4445     0.0000   -0.0000    0.0000
     atom=  11, XYZ(ang) Fxyz(a.u.)=   0.0283    5.6829   10.5038     0.0000   -0.0000    0.0000
     atom=  12, XYZ(ang) Fxyz(a.u.)=  -1.2068    7.8231   10.4977     0.0000   -0.0000    0.0000
     atom=  13, XYZ(ang) Fxyz(a.u.)=  -2.4405    9.9576   10.4328    -0.0000   -0.0000    0.0001
     atom=  14, XYZ(ang) Fxyz(a.u.)=  -3.6748   12.0945   10.3836    -0.0000    0.0000    0.0001
     atom=  15, XYZ(ang) Fxyz(a.u.)=  -4.9092   14.2309   10.3598    -0.0000    0.0000    0.0001
     atom=  16, XYZ(ang) Fxyz(a.u.)=  -6.1426   16.3666   10.3630    -0.0000    0.0000    0.0000
     atom=  17, XYZ(ang) Fxyz(a.u.)=   4.9595    1.4095   10.3892    -0.0000    0.0000    0.0000
     atom=  18, XYZ(ang) Fxyz(a.u.)=   3.7263    3.5439   10.4442    -0.0000   -0.0000    0.0000
     atom=  19, XYZ(ang) Fxyz(a.u.)=   2.4951    5.6818   10.5363     0.0000   -0.0000    0.0000
     atom=  20, XYZ(ang) Fxyz(a.u.)=   1.2571    7.8183   10.6394     0.0000   -0.0000   -0.0000
     atom=  21, XYZ(ang) Fxyz(a.u.)=   0.0264    9.9598   10.5385     0.0000    0.0000    0.0000
     atom=  22, XYZ(ang) Fxyz(a.u.)=  -1.2097   12.0951   10.4510    -0.0000    0.0000    0.0000
     atom=  23, XYZ(ang) Fxyz(a.u.)=  -2.4419   14.2302   10.3955    -0.0000    0.0000    0.0000
     atom=  24, XYZ(ang) Fxyz(a.u.)=  -3.6751   16.3672   10.3749    -0.0000    0.0000    0.0001
     atom=  25, XYZ(ang) Fxyz(a.u.)=   7.4268    1.4095   10.3973    -0.0000    0.0000    0.0001
     atom=  26, XYZ(ang) Fxyz(a.u.)=   6.1930    3.5467   10.4311    -0.0000   -0.0000    0.0000
     atom=  27, XYZ(ang) Fxyz(a.u.)=   4.9574    5.6814   10.5253    -0.0000   -0.0000    0.0000
     atom=  28, XYZ(ang) Fxyz(a.u.)=   3.7263    7.7966   10.7408     0.0000   -0.0000   -0.0000
     atom=  29, XYZ(ang) Fxyz(a.u.)=   2.4713    9.9695   10.7531     0.0000   -0.0000   -0.0000
     atom=  30, XYZ(ang) Fxyz(a.u.)=   1.2573   12.0925   10.5489     0.0000   -0.0000   -0.0000
     atom=  31, XYZ(ang) Fxyz(a.u.)=   0.0257   14.2301   10.4556    -0.0000    0.0000    0.0001
     atom=  32, XYZ(ang) Fxyz(a.u.)=  -1.2086   16.3671   10.4076    -0.0000    0.0000    0.0000
     atom=  33, XYZ(ang) Fxyz(a.u.)=   9.8945    1.4101   10.4141    -0.0000    0.0000    0.0000
     atom=  34, XYZ(ang) Fxyz(a.u.)=   8.6591    3.5479   10.4192    -0.0000    0.0000    0.0000
     atom=  35, XYZ(ang) Fxyz(a.u.)=   7.4246    5.6829   10.4792    -0.0000   -0.0000   -0.0000
     atom=  36, XYZ(ang) Fxyz(a.u.)=   6.1962    7.8189   10.6120    -0.0000   -0.0000   -0.0000
     atom=  37, XYZ(ang) Fxyz(a.u.)=   4.9806    9.9692   10.7397    -0.0000   -0.0000   -0.0000
     atom=  38, XYZ(ang) Fxyz(a.u.)=   3.7272   12.0968   10.6509     0.0000   -0.0000   -0.0000
     atom=  39, XYZ(ang) Fxyz(a.u.)=   2.4911   14.2289   10.5229     0.0000    0.0000    0.0000
     atom=  40, XYZ(ang) Fxyz(a.u.)=   1.2591   16.3655   10.4486    -0.0000    0.0000    0.0000
     atom=  41, XYZ(ang) Fxyz(a.u.)=  12.3612    1.4097   10.4316    -0.0000    0.0000   -0.0000
     atom=  42, XYZ(ang) Fxyz(a.u.)=  11.1273    3.5469   10.4124    -0.0000    0.0000   -0.0000
     atom=  43, XYZ(ang) Fxyz(a.u.)=   9.8937    5.6844   10.4255    -0.0000    0.0000   -0.0000
     atom=  44, XYZ(ang) Fxyz(a.u.)=   8.6601    7.8233   10.4703     0.0000   -0.0000   -0.0000
     atom=  45, XYZ(ang) Fxyz(a.u.)=   7.4277    9.9607   10.5177     0.0000    0.0000   -0.0000
     atom=  46, XYZ(ang) Fxyz(a.u.)=   6.1964   12.0932   10.5390     0.0000    0.0000   -0.0000
     atom=  47, XYZ(ang) Fxyz(a.u.)=   4.9621   14.2291   10.5201     0.0000    0.0000   -0.0000
     atom=  48, XYZ(ang) Fxyz(a.u.)=   3.7264   16.3668   10.4725    -0.0000    0.0000   -0.0000
     atom=  49, XYZ(ang) Fxyz(a.u.)=  14.8298    1.4097   10.4347    -0.0000    0.0000   -0.0000
     atom=  50, XYZ(ang) Fxyz(a.u.)=  13.5955    3.5472   10.4152    -0.0000    0.0000   -0.0000
     atom=  51, XYZ(ang) Fxyz(a.u.)=  12.3616    5.6849   10.3993    -0.0000   -0.0000   -0.0000
     atom=  52, XYZ(ang) Fxyz(a.u.)=  11.1264    7.8217   10.3982     0.0000    0.0000    0.0000
     atom=  53, XYZ(ang) Fxyz(a.u.)=   9.8941    9.9579   10.4125     0.0000    0.0000   -0.0000
     atom=  54, XYZ(ang) Fxyz(a.u.)=   8.6633   12.0957   10.4361     0.0000    0.0000   -0.0000
     atom=  55, XYZ(ang) Fxyz(a.u.)=   7.4277   14.2306   10.4488     0.0000    0.0000   -0.0000
     atom=  56, XYZ(ang) Fxyz(a.u.)=   6.1937   16.3657   10.4485    -0.0000    0.0000   -0.0000
     atom=  57, XYZ(ang) Fxyz(a.u.)=  17.2966    1.4103   10.4221    -0.0000    0.0000   -0.0000
     atom=  58, XYZ(ang) Fxyz(a.u.)=  16.0639    3.5471   10.4247    -0.0000    0.0000   -0.0000
     atom=  59, XYZ(ang) Fxyz(a.u.)=  14.8297    5.6849   10.4083    -0.0000    0.0000    0.0000
     atom=  60, XYZ(ang) Fxyz(a.u.)=  13.5958    7.8209   10.3834    -0.0000    0.0000    0.0000
     atom=  61, XYZ(ang) Fxyz(a.u.)=  12.3622    9.9580   10.3696     0.0000    0.0000    0.0000
     atom=  62, XYZ(ang) Fxyz(a.u.)=  11.1284   12.0948   10.3725     0.0000    0.0000    0.0001
     atom=  63, XYZ(ang) Fxyz(a.u.)=   9.8953   14.2307   10.3881    -0.0000    0.0000    0.0000
     atom=  64, XYZ(ang) Fxyz(a.u.)=   8.6617   16.3675   10.4076    -0.0000    0.0000   -0.0000
     atom=  65, XYZ(ang) Fxyz(a.u.)=   1.2590    0.6977   10.3881    -0.0000   -0.0000   -0.0000
     atom=  66, XYZ(ang) Fxyz(a.u.)=   0.0267    2.8354   10.4271    -0.0000   -0.0000   -0.0000
     atom=  67, XYZ(ang) Fxyz(a.u.)=  -1.2044    4.9730   10.4614     0.0000   -0.0000   -0.0000
     atom=  68, XYZ(ang) Fxyz(a.u.)=  -2.4382    7.1110   10.4518     0.0000   -0.0000   -0.0000
     atom=  69, XYZ(ang) Fxyz(a.u.)=  -3.6734    9.2459   10.4056    -0.0000    0.0000   -0.0001
     atom=  70, XYZ(ang) Fxyz(a.u.)=  -4.9088   11.3819   10.3684    -0.0000    0.0000   -0.0001
     atom=  71, XYZ(ang) Fxyz(a.u.)=  -6.1423   13.5191   10.3534    -0.0000    0.0000   -0.0001
     atom=  72, XYZ(ang) Fxyz(a.u.)=  -7.3758   15.6550   10.3611    -0.0000    0.0000   -0.0000
     atom=  73, XYZ(ang) Fxyz(a.u.)=   3.7264    0.6979   10.3782    -0.0000    0.0000   -0.0000
     atom=  74, XYZ(ang) Fxyz(a.u.)=   2.4938    2.8335   10.4243    -0.0000   -0.0000   -0.0001
     atom=  75, XYZ(ang) Fxyz(a.u.)=   1.2603    4.9710   10.4919     0.0000   -0.0000   -0.0000
     atom=  76, XYZ(ang) Fxyz(a.u.)=   0.0343    7.1129   10.5492     0.0000    0.0000   -0.0000
     atom=  77, XYZ(ang) Fxyz(a.u.)=  -1.2067    9.2462   10.4863     0.0000   -0.0000   -0.0000
     atom=  78, XYZ(ang) Fxyz(a.u.)=  -2.4411   11.3831   10.4194     0.0000    0.0000   -0.0000
     atom=  79, XYZ(ang) Fxyz(a.u.)=  -3.6748   13.5184   10.3763    -0.0000    0.0000   -0.0000
     atom=  80, XYZ(ang) Fxyz(a.u.)=  -4.9092   15.6548   10.3623    -0.0000    0.0000   -0.0000
     atom=  81, XYZ(ang) Fxyz(a.u.)=   6.1940    0.6975   10.3837    -0.0000    0.0000   -0.0001
     atom=  82, XYZ(ang) Fxyz(a.u.)=   4.9590    2.8335   10.4181    -0.0000   -0.0000   -0.0001
     atom=  83, XYZ(ang) Fxyz(a.u.)=   3.7264    4.9698   10.5018    -0.0000   -0.0000   -0.0000
     atom=  84, XYZ(ang) Fxyz(a.u.)=   2.5007    7.1052   10.6435     0.0000   -0.0000    0.0000
     atom=  85, XYZ(ang) Fxyz(a.u.)=   1.2628    9.2528   10.6481     0.0000    0.0000    0.0000
     atom=  86, XYZ(ang) Fxyz(a.u.)=   0.0256   11.3820   10.5133     0.0000    0.0000   -0.0000
     atom=  87, XYZ(ang) Fxyz(a.u.)=  -1.2088   13.5180   10.4320    -0.0000    0.0000   -0.0000
     atom=  88, XYZ(ang) Fxyz(a.u.)=  -2.4417   15.6554   10.3898    -0.0000    0.0000   -0.0000
     atom=  89, XYZ(ang) Fxyz(a.u.)=   8.6604    0.6976   10.4041    -0.0000    0.0000   -0.0001
     atom=  90, XYZ(ang) Fxyz(a.u.)=   7.4262    2.8353   10.4129    -0.0000   -0.0000   -0.0001
     atom=  91, XYZ(ang) Fxyz(a.u.)=   6.1924    4.9712   10.4739    -0.0000   -0.0000   -0.0001
     atom=  92, XYZ(ang) Fxyz(a.u.)=   4.9515    7.1059   10.6276    -0.0000   -0.0000   -0.0000
     atom=  93, XYZ(ang) Fxyz(a.u.)=   3.7281    9.2440   11.1384     0.0000    0.0000    0.0000
     atom=  94, XYZ(ang) Fxyz(a.u.)=   2.4877   11.3750   10.6564    -0.0000    0.0000    0.0000
     atom=  95, XYZ(ang) Fxyz(a.u.)=   1.2589   13.5175   10.5074     0.0000    0.0000   -0.0000
     atom=  96, XYZ(ang) Fxyz(a.u.)=   0.0258   15.6538   10.4362    -0.0000    0.0000   -0.0000
     atom=  97, XYZ(ang) Fxyz(a.u.)=  11.1283    0.6975   10.4302    -0.0000    0.0000   -0.0000
     atom=  98, XYZ(ang) Fxyz(a.u.)=   9.8940    2.8351   10.4127    -0.0000    0.0000    0.0000
     atom=  99, XYZ(ang) Fxyz(a.u.)=   8.6574    4.9730   10.4385    -0.0000   -0.0000    0.0000
     atom= 100, XYZ(ang) Fxyz(a.u.)=   7.4193    7.1130   10.5214    -0.0000    0.0000    0.0000
     atom= 101, XYZ(ang) Fxyz(a.u.)=   6.1912    9.2535   10.6239     0.0000    0.0000    0.0000
     atom= 102, XYZ(ang) Fxyz(a.u.)=   4.9667   11.3767   10.6479     0.0000    0.0000    0.0000
     atom= 103, XYZ(ang) Fxyz(a.u.)=   3.7268   13.5091   10.5690     0.0000    0.0000    0.0000
     atom= 104, XYZ(ang) Fxyz(a.u.)=   2.4923   15.6515   10.4816     0.0000    0.0000   -0.0000
     atom= 105, XYZ(ang) Fxyz(a.u.)=  13.5955    0.6954   10.4458    -0.0000    0.0000    0.0000
     atom= 106, XYZ(ang) Fxyz(a.u.)=  12.3614    2.8346   10.4177    -0.0000    0.0000   -0.0000
     atom= 107, XYZ(ang) Fxyz(a.u.)=  11.1257    4.9733   10.4095    -0.0000    0.0000    0.0000
     atom= 108, XYZ(ang) Fxyz(a.u.)=   9.8915    7.1109   10.4279    -0.0000   -0.0000    0.0000
     atom= 109, XYZ(ang) Fxyz(a.u.)=   8.6603    9.2465   10.4621    -0.0000    0.0000   -0.0000
     atom= 110, XYZ(ang) Fxyz(a.u.)=   7.4285   11.3828   10.4978     0.0000    0.0000    0.0000
     atom= 111, XYZ(ang) Fxyz(a.u.)=   6.1947   13.5183   10.5010     0.0000    0.0000    0.0000
     atom= 112, XYZ(ang) Fxyz(a.u.)=   4.9608   15.6518   10.4806     0.0000    0.0000   -0.0000
     atom= 113, XYZ(ang) Fxyz(a.u.)=  16.0630    0.6977   10.4340    -0.0000    0.0000   -0.0000
     atom= 114, XYZ(ang) Fxyz(a.u.)=  14.8298    2.8348   10.4232    -0.0000    0.0000    0.0000
     atom= 115, XYZ(ang) Fxyz(a.u.)=  13.5957    4.9725   10.4047    -0.0000    0.0000    0.0000
     atom= 116, XYZ(ang) Fxyz(a.u.)=  12.3615    7.1090   10.3894    -0.0000    0.0000   -0.0000
     atom= 117, XYZ(ang) Fxyz(a.u.)=  11.1271    9.2460   10.3891    -0.0000    0.0000   -0.0000
     atom= 118, XYZ(ang) Fxyz(a.u.)=   9.8949   11.3835   10.4032    -0.0000    0.0000   -0.0000
     atom= 119, XYZ(ang) Fxyz(a.u.)=   8.6625   13.5186   10.4219     0.0000    0.0000    0.0000
     atom= 120, XYZ(ang) Fxyz(a.u.)=   7.4274   15.6543   10.4339     0.0000    0.0000    0.0000
     atom= 121, XYZ(ang) Fxyz(a.u.)=  18.5308    0.6979   10.4100    -0.0000   -0.0000    0.0000
     atom= 122, XYZ(ang) Fxyz(a.u.)=  17.2972    2.8352   10.4261    -0.0000   -0.0000   -0.0000
     atom= 123, XYZ(ang) Fxyz(a.u.)=  16.0656    4.9734   10.4250    -0.0000   -0.0000    0.0000
     atom= 124, XYZ(ang) Fxyz(a.u.)=  14.8302    7.1090   10.3990    -0.0000   -0.0000   -0.0000
     atom= 125, XYZ(ang) Fxyz(a.u.)=  13.5960    9.2461   10.3726    -0.0000    0.0000   -0.0001
     atom= 126, XYZ(ang) Fxyz(a.u.)=  12.3625   11.3820   10.3614    -0.0000    0.0000   -0.0001
     atom= 127, XYZ(ang) Fxyz(a.u.)=  11.1283   13.5187   10.3685    -0.0000    0.0000   -0.0000
     atom= 128, XYZ(ang) Fxyz(a.u.)=   9.8949   15.6557   10.3874     0.0000    0.0000    0.0000
     atom= 129, XYZ(ang) Fxyz(a.u.)=   3.6775    9.2734   12.6450     0.0000    0.0000    0.0000
     atom= 130, XYZ(ang) Fxyz(a.u.)=   4.4895    8.8324   12.9585    -0.0000   -0.0000   -0.0000
     atom= 131, XYZ(ang) Fxyz(a.u.)=   4.5180    8.8819   15.8915    -0.0000    0.0001    0.0000
     atom= 132, XYZ(ang) Fxyz(a.u.)=   3.8224    9.2543   16.7794    -0.0001    0.0000   -0.0000
     atom= 133, XYZ(ang) Fxyz(a.u.)=   5.2259    8.5030   15.0168     0.0000    0.0000    0.0001

outputting data on grids to files...


***********************************************************
***********************************************************
               Computational Time (second)                 
***********************************************************
***********************************************************

                               Min_ID   Min_Time       Max_ID   Max_Time
   Total Computational Time =    56    20561.406          0    20561.531
   readfile                 =    41        2.637         52        2.642
   truncation               =    40       60.477         47       66.341
   MD_pac                   =     0        3.550         55        3.794
   OutData                  =    55        0.916          0        1.037
   DFT                      =    47    20487.590         40    20493.455

*** In DFT ***

   Set_OLP_Kin              =    40       56.955         47      109.591
   Set_Nonlocal             =    47      153.380         40      205.993
   Set_ProExpn_VNA          =    24      299.517         15      324.851
   Set_Hamiltonian          =    18     1135.329          2     1135.343
   Poisson                  =    20       13.740          6       13.745
   Diagonalization          =     0    17756.775         56    17756.799
   Mixing_DM                =    22      122.776          7      122.786
   Force                    =    18      260.892         45      260.892
   Total_Energy             =    45       83.451          0       83.470
   Set_Aden_Grid            =    15        4.362         24       29.842
   Set_Orbitals_Grid        =    40       23.452         55       50.791
   Set_Density_Grid         =     3      430.031         52      444.009
   RestartFileDFT           =    31        4.544         40       24.518
   Mulliken_Charge          =    34        0.893         30        0.894
   FFT(2D)_Density          =     6       14.789         23       14.802
   Others                   =    47       10.705          3       39.513

The calculation was normally finished.
